Program Version,EnergyPlus, Version 9.4.0-998c4b761e, YMD=2021.03.24 06:33
1,5,Environment Title[],Latitude[deg],Longitude[deg],Time Zone[],Elevation[m]
2,8,Day of Simulation[],Month[],Day of Month[],DST Indicator[1=yes 0=no],Hour[],StartMinute[],EndMinute[],DayType
3,5,Cumulative Day of Simulation[],Month[],Day of Month[],DST Indicator[1=yes 0=no],DayType  ! When Daily Report Variables Requested
4,2,Cumulative Days of Simulation[],Month[]  ! When Monthly Report Variables Requested
5,1,Cumulative Days of Simulation[] ! When Run Period Report Variables Requested
6,1,Calendar Year of Simulation[] ! When Annual Report Variables Requested
8,1,Electricity:Facility [J] !TimeStep
1987,1,NaturalGas:Facility [J] !TimeStep
End of Data Dictionary
1,BUFFALO NIAGARA INTL AP ANN CLG .4% CONDNS DB=>MWB 1 HVAC Sizing Pass 1,  42.93, -78.73,  -5.00, 215.00
2,1, 7,21, 0, 1, 0.00,60.00,SummerDesignDay
8,3910455470.261315
1987,0.0
2,1, 7,21, 0, 2, 0.00,60.00,SummerDesignDay
8,3910104810.0951788
1987,0.0
2,1, 7,21, 0, 3, 0.00,60.00,SummerDesignDay
8,3909858589.3706929
1987,0.0
2,1, 7,21, 0, 4, 0.00,60.00,SummerDesignDay
8,3909639426.038318
1987,0.0
2,1, 7,21, 0, 5, 0.00,60.00,SummerDesignDay
8,3909469868.4764745
1987,0.0
2,1, 7,21, 0, 6, 0.00,60.00,SummerDesignDay
8,3669889811.6021959
1987,0.0
2,1, 7,21, 0, 7, 0.00,60.00,SummerDesignDay
8,3670327715.016845
1987,0.0
2,1, 7,21, 0, 8, 0.00,60.00,SummerDesignDay
8,3671545840.244067
1987,0.0
2,1, 7,21, 0, 9, 0.00,60.00,SummerDesignDay
8,3701655710.0656769
1987,0.0
2,1, 7,21, 0,10, 0.00,60.00,SummerDesignDay
8,4606327924.237756
1987,0.0
2,1, 7,21, 0,11, 0.00,60.00,SummerDesignDay
8,4486679464.309793
1987,0.0
2,1, 7,21, 0,12, 0.00,60.00,SummerDesignDay
8,4552150474.70294
1987,0.0
2,1, 7,21, 0,13, 0.00,60.00,SummerDesignDay
8,4502371754.650423
1987,344161098.41896358
2,1, 7,21, 0,14, 0.00,60.00,SummerDesignDay
8,4516565216.974386
1987,0.0
2,1, 7,21, 0,15, 0.00,60.00,SummerDesignDay
8,4525673586.294572
1987,258761743.6451844
2,1, 7,21, 0,16, 0.00,60.00,SummerDesignDay
8,4504047647.186006
1987,86690207.05265133
2,1, 7,21, 0,17, 0.00,60.00,SummerDesignDay
8,4462323620.012164
1987,86171916.97390542
2,1, 7,21, 0,18, 0.00,60.00,SummerDesignDay
8,4394035673.2869
1987,256738310.05416078
2,1, 7,21, 0,19, 0.00,60.00,SummerDesignDay
8,4283882049.1920068
1987,0.0
2,1, 7,21, 0,20, 0.00,60.00,SummerDesignDay
8,4165956943.4470636
1987,86027332.95760773
2,1, 7,21, 0,21, 0.00,60.00,SummerDesignDay
8,4442287431.13251
1987,254786764.92853696
2,1, 7,21, 0,22, 0.00,60.00,SummerDesignDay
8,4072984422.86883
1987,0.0
2,1, 7,21, 0,23, 0.00,60.00,SummerDesignDay
8,4055355232.2853629
1987,0.0
2,1, 7,21, 0,24, 0.00,60.00,SummerDesignDay
8,4041503122.612378
1987,0.0
1,BUFFALO NIAGARA INTL AP ANN CLG .4% CONDNS WB=>MDB 1 HVAC Sizing Pass 1,  42.93, -78.73,  -5.00, 215.00
2,1, 7,21, 0, 1, 0.00,60.00,SummerDesignDay
8,3911540633.944301
1987,0.0
2,1, 7,21, 0, 2, 0.00,60.00,SummerDesignDay
8,3910329966.9085776
1987,0.0
2,1, 7,21, 0, 3, 0.00,60.00,SummerDesignDay
8,3909544530.022797
1987,0.0
2,1, 7,21, 0, 4, 0.00,60.00,SummerDesignDay
8,3908893229.114197
1987,0.0
2,1, 7,21, 0, 5, 0.00,60.00,SummerDesignDay
8,3908406708.990654
1987,0.0
2,1, 7,21, 0, 6, 0.00,60.00,SummerDesignDay
8,3668866209.0486404
1987,0.0
2,1, 7,21, 0, 7, 0.00,60.00,SummerDesignDay
8,3670144538.9329259
1987,0.0
2,1, 7,21, 0, 8, 0.00,60.00,SummerDesignDay
8,3706274569.477597
1987,0.0
2,1, 7,21, 0, 9, 0.00,60.00,SummerDesignDay
8,3882255725.0416548
1987,0.0
2,1, 7,21, 0,10, 0.00,60.00,SummerDesignDay
8,4898622043.544938
1987,0.0
2,1, 7,21, 0,11, 0.00,60.00,SummerDesignDay
8,4779036261.524733
1987,0.0
2,1, 7,21, 0,12, 0.00,60.00,SummerDesignDay
8,4878321325.272067
1987,0.0
2,1, 7,21, 0,13, 0.00,60.00,SummerDesignDay
8,4806795811.194233
1987,344161098.4835296
2,1, 7,21, 0,14, 0.00,60.00,SummerDesignDay
8,4811304500.663403
1987,0.0
2,1, 7,21, 0,15, 0.00,60.00,SummerDesignDay
8,4829795537.967438
1987,258761743.70374186
2,1, 7,21, 0,16, 0.00,60.00,SummerDesignDay
8,4796741172.53824
1987,86690207.05900836
2,1, 7,21, 0,17, 0.00,60.00,SummerDesignDay
8,4731914541.254775
1987,86171917.0321153
2,1, 7,21, 0,18, 0.00,60.00,SummerDesignDay
8,4635343479.081639
1987,256738310.0608024
2,1, 7,21, 0,19, 0.00,60.00,SummerDesignDay
8,4509764274.18833
1987,0.0
2,1, 7,21, 0,20, 0.00,60.00,SummerDesignDay
8,4374435625.198881
1987,86027333.01549033
2,1, 7,21, 0,21, 0.00,60.00,SummerDesignDay
8,4643766440.20627
1987,254786764.93508209
2,1, 7,21, 0,22, 0.00,60.00,SummerDesignDay
8,4188871458.3407084
1987,0.0
2,1, 7,21, 0,23, 0.00,60.00,SummerDesignDay
8,4129680064.7811429
1987,0.0
2,1, 7,21, 0,24, 0.00,60.00,SummerDesignDay
8,4077903245.2257196
1987,0.0
1,BUFFALO NIAGARA INTL AP ANN HTG 99.6% CONDNS DB 1 HVAC Sizing Pass 1,  42.93, -78.73,  -5.00, 215.00
2,1, 1,21, 0, 1, 0.00,60.00,WinterDesignDay
8,851472093.5433155
1987,6013631704.662344
2,1, 1,21, 0, 2, 0.00,60.00,WinterDesignDay
8,844992039.6426166
1987,4857978484.159462
2,1, 1,21, 0, 3, 0.00,60.00,WinterDesignDay
8,845151416.185046
1987,4940997718.972416
2,1, 1,21, 0, 4, 0.00,60.00,WinterDesignDay
8,845309517.3396502
1987,5040744260.959299
2,1, 1,21, 0, 5, 0.00,60.00,WinterDesignDay
8,845471288.8060963
1987,5146135949.114683
2,1, 1,21, 0, 6, 0.00,60.00,WinterDesignDay
8,845612165.0047631
1987,5224779555.787828
2,1, 1,21, 0, 7, 0.00,60.00,WinterDesignDay
8,957984288.7771885
1987,5300933917.362568
2,1, 1,21, 0, 8, 0.00,60.00,WinterDesignDay
8,958110216.6532202
1987,5366730053.985472
2,1, 1,21, 0, 9, 0.00,60.00,WinterDesignDay
8,641004943.0567082
1987,7774967971.509298
2,1, 1,21, 0,10, 0.00,60.00,WinterDesignDay
8,722109807.67774
1987,11419517797.620854
2,1, 1,21, 0,11, 0.00,60.00,WinterDesignDay
8,717706523.2847564
1987,11298962770.926606
2,1, 1,21, 0,12, 0.00,60.00,WinterDesignDay
8,704161356.9613627
1987,11243397126.797982
2,1, 1,21, 0,13, 0.00,60.00,WinterDesignDay
8,684082175.3873394
1987,11110187679.75787
2,1, 1,21, 0,14, 0.00,60.00,WinterDesignDay
8,677177635.2406099
1987,10661992090.15139
2,1, 1,21, 0,15, 0.00,60.00,WinterDesignDay
8,659809440.5421792
1987,10052713832.24379
2,1, 1,21, 0,16, 0.00,60.00,WinterDesignDay
8,656586586.1260144
1987,9717507293.38619
2,1, 1,21, 0,17, 0.00,60.00,WinterDesignDay
8,655600855.6894302
1987,9621507163.414898
2,1, 1,21, 0,18, 0.00,60.00,WinterDesignDay
8,1006172870.0535209
1987,9416062374.924118
2,1, 1,21, 0,19, 0.00,60.00,WinterDesignDay
8,1025181981.5843381
1987,9517216940.626324
2,1, 1,21, 0,20, 0.00,60.00,WinterDesignDay
8,1023945159.6044762
1987,9226641805.048954
2,1, 1,21, 0,21, 0.00,60.00,WinterDesignDay
8,1022961731.7401306
1987,9246719449.203528
2,1, 1,21, 0,22, 0.00,60.00,WinterDesignDay
8,963474615.2496499
1987,5709060627.797307
2,1, 1,21, 0,23, 0.00,60.00,WinterDesignDay
8,963689803.3036718
1987,5865851523.802492
2,1, 1,21, 0,24, 0.00,60.00,WinterDesignDay
8,963690764.4254949
1987,5949834824.382914
1,BUFFALO NIAGARA INTL AP ANN CLG .4% CONDNS DB=>MWB 1,  42.93, -78.73,  -5.00, 215.00
2,1, 7,21, 0, 1, 0.00,60.00,SummerDesignDay
8,3931467915.4283545
1987,0.0
2,1, 7,21, 0, 2, 0.00,60.00,SummerDesignDay
8,3931128467.500955
1987,0.0
2,1, 7,21, 0, 3, 0.00,60.00,SummerDesignDay
8,3930891649.4871256
1987,0.0
2,1, 7,21, 0, 4, 0.00,60.00,SummerDesignDay
8,3930683787.6107175
1987,0.0
2,1, 7,21, 0, 5, 0.00,60.00,SummerDesignDay
8,3930520176.851292
1987,0.0
2,1, 7,21, 0, 6, 0.00,60.00,SummerDesignDay
8,3690925913.408849
1987,0.0
2,1, 7,21, 0, 7, 0.00,60.00,SummerDesignDay
8,3691330276.1775915
1987,0.0
2,1, 7,21, 0, 8, 0.00,60.00,SummerDesignDay
8,3692477853.124986
1987,0.0
2,1, 7,21, 0, 9, 0.00,60.00,SummerDesignDay
8,3722385014.568193
1987,0.0
2,1, 7,21, 0,10, 0.00,60.00,SummerDesignDay
8,4619823599.357429
1987,0.0
2,1, 7,21, 0,11, 0.00,60.00,SummerDesignDay
8,4502874935.323411
1987,0.0
2,1, 7,21, 0,12, 0.00,60.00,SummerDesignDay
8,4567976221.508114
1987,0.0
2,1, 7,21, 0,13, 0.00,60.00,SummerDesignDay
8,4518612691.683219
1987,344161098.41896376
2,1, 7,21, 0,14, 0.00,60.00,SummerDesignDay
8,4532742889.466653
1987,0.0
2,1, 7,21, 0,15, 0.00,60.00,SummerDesignDay
8,4541781437.842084
1987,258761743.64518477
2,1, 7,21, 0,16, 0.00,60.00,SummerDesignDay
8,4520284253.836893
1987,86690207.05265118
2,1, 7,21, 0,17, 0.00,60.00,SummerDesignDay
8,4478828007.806875
1987,86171916.97390527
2,1, 7,21, 0,18, 0.00,60.00,SummerDesignDay
8,4410982166.547835
1987,256738310.05416108
2,1, 7,21, 0,19, 0.00,60.00,SummerDesignDay
8,4301535079.243331
1987,0.0
2,1, 7,21, 0,20, 0.00,60.00,SummerDesignDay
8,4184336374.4558589
1987,86027332.95760757
2,1, 7,21, 0,21, 0.00,60.00,SummerDesignDay
8,4461137098.2575449
1987,254786764.92853726
2,1, 7,21, 0,22, 0.00,60.00,SummerDesignDay
8,4093760957.252147
1987,0.0
2,1, 7,21, 0,23, 0.00,60.00,SummerDesignDay
8,4076257014.9713675
1987,0.0
2,1, 7,21, 0,24, 0.00,60.00,SummerDesignDay
8,4062494598.3580729
1987,0.0
1,BUFFALO NIAGARA INTL AP ANN CLG .4% CONDNS WB=>MDB 1,  42.93, -78.73,  -5.00, 215.00
2,1, 7,21, 0, 1, 0.00,60.00,SummerDesignDay
8,3932542687.6471564
1987,0.0
2,1, 7,21, 0, 2, 0.00,60.00,SummerDesignDay
8,3931370163.4465506
1987,0.0
2,1, 7,21, 0, 3, 0.00,60.00,SummerDesignDay
8,3930615200.8880279
1987,0.0
2,1, 7,21, 0, 4, 0.00,60.00,SummerDesignDay
8,3930001338.2059619
1987,0.0
2,1, 7,21, 0, 5, 0.00,60.00,SummerDesignDay
8,3929534713.1061975
1987,0.0
2,1, 7,21, 0, 6, 0.00,60.00,SummerDesignDay
8,3689946930.9498765
1987,0.0
2,1, 7,21, 0, 7, 0.00,60.00,SummerDesignDay
8,3691119407.8411247
1987,0.0
2,1, 7,21, 0, 8, 0.00,60.00,SummerDesignDay
8,3726908472.237219
1987,0.0
2,1, 7,21, 0, 9, 0.00,60.00,SummerDesignDay
8,3901920248.284076
1987,0.0
2,1, 7,21, 0,10, 0.00,60.00,SummerDesignDay
8,4909758061.016694
1987,0.0
2,1, 7,21, 0,11, 0.00,60.00,SummerDesignDay
8,4793390358.040331
1987,0.0
2,1, 7,21, 0,12, 0.00,60.00,SummerDesignDay
8,4891946150.561538
1987,0.0
2,1, 7,21, 0,13, 0.00,60.00,SummerDesignDay
8,4821247139.992387
1987,344161098.4835296
2,1, 7,21, 0,14, 0.00,60.00,SummerDesignDay
8,4825810008.17965
1987,0.0
2,1, 7,21, 0,15, 0.00,60.00,SummerDesignDay
8,4844129235.985038
1987,258761743.70374186
2,1, 7,21, 0,16, 0.00,60.00,SummerDesignDay
8,4811312203.377991
1987,86690207.05900838
2,1, 7,21, 0,17, 0.00,60.00,SummerDesignDay
8,4746936369.233042
1987,86171917.0321153
2,1, 7,21, 0,18, 0.00,60.00,SummerDesignDay
8,4651015369.732949
1987,256738310.0608024
2,1, 7,21, 0,19, 0.00,60.00,SummerDesignDay
8,4526165156.866146
1987,0.0
2,1, 7,21, 0,20, 0.00,60.00,SummerDesignDay
8,4391640339.564932
1987,86027333.01549033
2,1, 7,21, 0,21, 0.00,60.00,SummerDesignDay
8,4661438496.656954
1987,254786764.93508209
2,1, 7,21, 0,22, 0.00,60.00,SummerDesignDay
8,4208946109.428061
1987,0.0
2,1, 7,21, 0,23, 0.00,60.00,SummerDesignDay
8,4150110437.1709296
1987,0.0
2,1, 7,21, 0,24, 0.00,60.00,SummerDesignDay
8,4098659310.470702
1987,0.0
1,BUFFALO NIAGARA INTL AP ANN HTG 99.6% CONDNS DB 1,  42.93, -78.73,  -5.00, 215.00
2,1, 1,21, 0, 1, 0.00,60.00,WinterDesignDay
8,851472093.5433155
1987,6013631704.662344
2,1, 1,21, 0, 2, 0.00,60.00,WinterDesignDay
8,844992039.6426166
1987,4857978484.159462
2,1, 1,21, 0, 3, 0.00,60.00,WinterDesignDay
8,845151416.185046
1987,4940997718.972416
2,1, 1,21, 0, 4, 0.00,60.00,WinterDesignDay
8,845309517.3396502
1987,5040744260.959299
2,1, 1,21, 0, 5, 0.00,60.00,WinterDesignDay
8,845471288.8060963
1987,5146135949.114683
2,1, 1,21, 0, 6, 0.00,60.00,WinterDesignDay
8,845612165.0047631
1987,5224779555.787828
2,1, 1,21, 0, 7, 0.00,60.00,WinterDesignDay
8,957984288.7771885
1987,5300933917.362568
2,1, 1,21, 0, 8, 0.00,60.00,WinterDesignDay
8,958110216.6532202
1987,5366730053.985472
2,1, 1,21, 0, 9, 0.00,60.00,WinterDesignDay
8,641004943.0567082
1987,7774967971.509298
2,1, 1,21, 0,10, 0.00,60.00,WinterDesignDay
8,722109807.67774
1987,11419517797.620854
2,1, 1,21, 0,11, 0.00,60.00,WinterDesignDay
8,717706523.2847564
1987,11298962770.926606
2,1, 1,21, 0,12, 0.00,60.00,WinterDesignDay
8,704161356.9613627
1987,11243397126.797982
2,1, 1,21, 0,13, 0.00,60.00,WinterDesignDay
8,684082175.3873394
1987,11110187679.75787
2,1, 1,21, 0,14, 0.00,60.00,WinterDesignDay
8,677177635.2406099
1987,10661992090.15139
2,1, 1,21, 0,15, 0.00,60.00,WinterDesignDay
8,659809440.5421792
1987,10052713832.24379
2,1, 1,21, 0,16, 0.00,60.00,WinterDesignDay
8,656586586.1260144
1987,9717507293.38619
2,1, 1,21, 0,17, 0.00,60.00,WinterDesignDay
8,655600855.6894302
1987,9621507163.414898
2,1, 1,21, 0,18, 0.00,60.00,WinterDesignDay
8,1006172870.0535209
1987,9416062374.924118
2,1, 1,21, 0,19, 0.00,60.00,WinterDesignDay
8,1025181981.5843381
1987,9517216940.626324
2,1, 1,21, 0,20, 0.00,60.00,WinterDesignDay
8,1023945159.6044762
1987,9226641805.048954
2,1, 1,21, 0,21, 0.00,60.00,WinterDesignDay
8,1022961731.7401306
1987,9246719449.203528
2,1, 1,21, 0,22, 0.00,60.00,WinterDesignDay
8,963474615.2496499
1987,5709060627.797307
2,1, 1,21, 0,23, 0.00,60.00,WinterDesignDay
8,963689803.3036718
1987,5865851523.802492
2,1, 1,21, 0,24, 0.00,60.00,WinterDesignDay
8,963690764.4254949
1987,5949834824.382914
End of Data
 Number of Records Written=         288
