Program Version,EnergyPlus, Version 9.4.0-998c4b761e, YMD=2021.04.05 22:23
1,5,Environment Title[],Latitude[deg],Longitude[deg],Time Zone[],Elevation[m]
2,8,Day of Simulation[],Month[],Day of Month[],DST Indicator[1=yes 0=no],Hour[],StartMinute[],EndMinute[],DayType
3,5,Cumulative Day of Simulation[],Month[],Day of Month[],DST Indicator[1=yes 0=no],DayType  ! When Daily Meters Requested
4,2,Cumulative Days of Simulation[],Month[]  ! When Monthly Meters Requested
5,1,Cumulative Days of Simulation[] ! When Run Period Meters Requested
6,1,Calendar Year of Simulation[] ! When Annual Meters Requested
1335,1,Heating:Electricity [J] !TimeStep
1310,1,Heating:NaturalGas [J] !TimeStep
1075,1,Cooling:Electricity [J] !TimeStep
45,1,InteriorLights:Electricity [J] !TimeStep
999,1,ExteriorLights:Electricity [J] !TimeStep
207,1,InteriorEquipment:Electricity [J] !TimeStep
969,1,Fans:Electricity [J] !TimeStep
1360,1,Pumps:Electricity [J] !TimeStep
1150,1,HeatRejection:Electricity [J] !TimeStep
1199,1,HeatRejection:Water [m3] !TimeStep
1502,1,WaterSystems:NaturalGas [J] !TimeStep
1389,1,WaterSystems:Water [m3] !TimeStep
9,1,Electricity:Facility [J] !TimeStep
1286,1,NaturalGas:Facility [J] !TimeStep
1175,1,Water:Facility [m3] !TimeStep
1288,7,NaturalGas:Facility [J] !Daily [Value,Min,Hour,Minute,Max,Hour,Minute]
11,7,Electricity:Facility [J] !Daily [Value,Min,Hour,Minute,Max,Hour,Minute]
End of Data Dictionary
1,RUN PERIOD 1,  42.93, -78.73,  -5.00, 215.00
2,1, 1, 1, 0, 1, 0.00,60.00,Sunday
9,682542826.7683041
45,58596598.456401038
207,263684693.05380506
969,27172263.991065869
999,124269734.55483864
1075,109735862.80876737
1150,2479208.793463963
1175,0.19598998915106748
1199,0.19598998915106748
1286,1450791530.0918816
1310,1450791530.0918816
1335,0.0
1360,96604465.1099622
1389,0.0
1502,0.0
2,1, 1, 1, 0, 2, 0.00,60.00,Sunday
9,446551026.06504479
45,58596598.456401038
207,263684693.05380506
969,0.0
999,124269734.55483864
1075,0.0
1150,0.0
1175,0.0
1199,0.0
1286,0.0
1310,0.0
1335,0.0
1360,0.0
1389,0.0
1502,0.0
2,1, 1, 1, 0, 3, 0.00,60.00,Sunday
9,699265782.8248375
45,58596598.456401038
207,263684693.05380506
969,31014028.84711628
999,124269734.55483864
1075,122093744.55070113
1150,2675930.2169905717
1175,0.22746352659768974
1199,0.22746352659768974
1286,1726818517.4142433
1310,1726818517.4142433
1335,0.0
1360,96931053.14498483
1389,0.0
1502,0.0
2,1, 1, 1, 0, 4, 0.00,60.00,Sunday
9,446551026.06504479
45,58596598.456401038
207,263684693.05380506
969,0.0
999,124269734.55483864
1075,0.0
1150,0.0
1175,0.0
1199,0.0
1286,0.0
1310,0.0
1335,0.0
1360,0.0
1389,0.0
1502,0.0
2,1, 1, 1, 0, 5, 0.00,60.00,Sunday
9,675314011.3060052
45,58596598.456401038
207,263684693.05380506
969,26235965.020628
999,124269734.55483864
1075,104121689.44909051
1150,2348005.3443071299
1175,0.1885194173886452
1199,0.1885194173886452
1286,1155512189.6410015
1310,1148289634.571641
1335,0.0
1360,96057325.42693499
1389,0.0
1502,7222555.069360516
2,1, 1, 1, 0, 6, 0.00,60.00,Sunday
9,459092905.91825059
45,58596598.456401038
207,276226572.9070109
969,0.0
999,124269734.55483864
1075,0.0
1150,0.0
1175,0.0
1199,0.0
1286,0.0
1310,0.0
1335,0.0
1360,0.0
1389,0.0
1502,0.0
2,1, 1, 1, 0, 7, 0.00,60.00,Sunday
9,665132577.0883333
45,58596598.456401038
207,263684693.05380506
969,23050589.13630248
999,131118192.48345293
1075,90605824.5206428
1150,2129754.2184261979
1175,0.22256157173474007
1199,0.17566136158729468
1286,1054246071.2809476
1310,1020263442.3626077
1335,0.0
1360,95946925.21930288
1389,0.04690021014744537
1502,33982628.91833988
2,1, 1, 1, 0, 8, 0.00,60.00,Sunday
9,598341788.8896338
45,58596598.456401038
207,263684693.05380506
969,7963439.710813807
999,131118192.48345293
1075,40904159.93622447
1150,1148780.4445031933
1175,0.185405650906189
1199,0.13850544075874364
1286,156226922.30479316
1310,132043454.74972457
1335,0.0
1360,94925924.80443324
1389,0.04690021014744537
1502,24183467.555068576
2,1, 1, 1, 0, 9, 0.00,60.00,Sunday
9,533791449.2060594
45,58596598.456401038
207,263684693.05380506
969,23050589.13630248
999,0.0
1075,90042850.47317924
1150,2056022.3587852235
1175,0.21824655103335884
1199,0.17134634088591348
1286,1370982060.163055
1310,1338684991.1569296
1335,0.0
1360,96360695.72758645
1389,0.04690021014744537
1502,32297069.006125425
2,1, 1, 1, 0,10, 0.00,60.00,Sunday
9,322335754.55087706
45,58596598.456401038
207,263684693.05380506
969,0.0
999,0.0
1075,0.0
1150,0.0
1175,0.04690021014744538
1199,0.0
1286,24193808.90784732
1310,0.0
1335,0.0
1360,54463.040671006136
1389,0.04690021014744538
1502,24193808.90784732
2,1, 1, 1, 0,11, 0.00,60.00,Sunday
9,537210939.0997889
45,58596598.456401038
207,263684693.05380506
969,23050589.136302476
999,0.0
1075,93482273.57563617
1150,2187373.939985255
1175,0.2621887514423927
1199,0.21528854129494733
1286,1228572771.4463788
1310,1204367420.9045737
1335,0.0
1360,96209410.93765889
1389,0.04690021014744537
1502,24205350.541804933
2,1, 1, 1, 0,12, 0.00,60.00,Sunday
9,322335754.55087706
45,58596598.456401038
207,263684693.05380506
969,0.0
999,0.0
1075,0.0
1150,0.0
1175,0.07035031522116805
1199,0.0
1286,33119111.94981826
1310,0.0
1335,0.0
1360,54463.040671006136
1389,0.07035031522116805
1502,33119111.94981826
2,1, 1, 1, 0,13, 0.00,60.00,Sunday
9,578114606.9630456
45,58596598.456401038
207,263684693.05380506
969,31014028.847116285
999,0.0
1075,125580393.57973051
1150,2840230.434507897
1175,0.28655422948383726
1199,0.2162039142626692
1286,1403112980.7315615
1310,1369924655.500059
1335,0.0
1360,96398662.59148485
1389,0.07035031522116807
1502,33188325.231502464
2,1, 1, 1, 0,14, 0.00,60.00,Sunday
9,322335754.55087706
45,58596598.456401038
207,263684693.05380506
969,0.0
999,0.0
1075,0.0
1150,0.0
1175,0.10552547283175209
1199,0.0
1286,43226460.44709394
1310,0.0
1335,0.0
1360,54463.040671006136
1389,0.10552547283175209
1502,43226460.44709394
2,1, 1, 1, 0,15, 0.00,60.00,Sunday
9,537078081.3891319
45,58596598.456401038
207,263684693.05380506
969,23050589.136302476
999,0.0
1075,93363255.2986993
1150,2263996.1557158569
1175,0.2543151004869991
1199,0.1839647852658311
1286,1178538989.91173
1310,1145397115.851931
1335,0.0
1360,96118949.2882082
1389,0.07035031522116805
1502,33141874.059798916
2,1, 1, 1, 0,16, 0.00,60.00,Sunday
9,322335754.55087706
45,58596598.456401038
207,263684693.05380506
969,0.0
999,0.0
1075,0.0
1150,0.0
1175,0.04690021014744537
1199,0.0
1286,24171517.466561349
1310,0.0
1335,0.0
1360,54463.04067100613
1389,0.04690021014744537
1502,24171517.466561349
2,1, 1, 1, 0,17, 0.00,60.00,Sunday
9,536874277.5730416
45,58596598.456401038
207,263684693.05380506
969,23050589.13630248
999,0.0
1075,92920833.0379315
1150,2243734.894227396
1175,0.22965624884948328
1199,0.18275603870203789
1286,1390987035.9405854
1310,1366806686.4137569
1335,0.0
1360,96377828.99437408
1389,0.04690021014744537
1502,24180349.526828637
2,1, 1, 1, 0,18, 0.00,60.00,Sunday
9,465995826.8875358
45,58596598.456401038
207,276226572.9070109
969,0.0
999,131118192.48345293
1075,0.0
1150,0.0
1175,0.04690021014744537
1199,0.0
1286,26763320.74470317
1310,0.0
1335,0.0
1360,54463.040671006136
1389,0.04690021014744537
1502,26763320.74470317
2,1, 1, 1, 0,19, 0.00,60.00,Sunday
9,692180189.6510877
45,58596598.456401038
207,263684693.05380506
969,28738760.35831234
999,131118192.48345293
1075,110429211.44421448
1150,2504589.0290575728
1175,0.18250605686320299
1199,0.18250605686320299
1286,1843187205.7973567
1310,1838237404.524274
1335,0.0
1360,97108144.82584422
1389,0.0
1502,4949801.2730825799
2,1, 1, 1, 0,20, 0.00,60.00,Sunday
9,453399483.993659
45,58596598.456401038
207,263684693.05380506
969,0.0
999,131118192.48345293
1075,0.0
1150,0.0
1175,0.0
1199,0.0
1286,0.0
1310,0.0
1335,0.0
1360,0.0
1389,0.0
1502,0.0
2,1, 1, 1, 0,21, 0.00,60.00,Sunday
9,706699382.9767537
45,58596598.456401038
207,263684693.05380506
969,31014028.84711628
999,131118192.48345293
1075,122595777.78240092
1150,2714956.312937785
1175,0.19537233220798876
1199,0.19537233220798876
1286,1743391351.7690197
1310,1743391351.7690197
1335,0.0
1360,96975136.04063976
1389,0.0
1502,0.0
2,1, 1, 1, 0,22, 0.00,60.00,Sunday
9,453399483.993659
45,58596598.456401038
207,263684693.05380506
969,0.0
999,131118192.48345293
1075,0.0
1150,0.0
1175,0.0
1199,0.0
1286,0.0
1310,0.0
1335,0.0
1360,0.0
1389,0.0
1502,0.0
2,1, 1, 1, 0,23, 0.00,60.00,Sunday
9,705625655.9051752
45,58596598.456401038
207,263684693.05380506
969,31014028.84711628
999,131118192.48345293
1075,121050540.4288961
1150,2655652.054403355
1175,0.2264202920451332
1199,0.2264202920451332
1286,2086479058.9198337
1310,2079256585.5623165
1335,0.0
1360,97505950.5811007
1389,0.0
1502,7222473.35751736
2,1, 1, 1, 0,24, 0.00,60.00,Sunday
9,453399483.993659
45,58596598.456401038
207,263684693.05380506
969,0.0
999,131118192.48345293
1075,0.0
1150,0.0
1175,0.0
1199,0.0
1286,0.0
1310,0.0
1335,0.0
1360,0.0
1389,0.0
1502,0.0
3,1, 1, 1, 0,Sunday
11,12615903824.761555,322335754.55087706,10,60,706699382.9767537,21,60
1288,17940320904.928415,0.0, 2,60,2086479058.9198337,23,60
2,2, 1, 2, 0, 1, 0.00,60.00,Monday
9,787027793.5630151
45,58596598.456401038
207,351579590.7384068
969,31014028.847116285
999,124269734.55483864
1075,121850264.0474351
1150,2627148.1432026375
1175,0.223426549468976
1199,0.223426549468976
1286,1800917920.9476479
1310,1800917920.9476479
1335,0.0
1360,97090428.77561456
1389,0.0
1502,0.0
2,2, 1, 2, 0, 2, 0.00,60.00,Monday
9,534445923.74964657
45,58596598.456401038
207,351579590.7384068
969,0.0
999,124269734.55483864
1075,0.0
1150,0.0
1175,0.0
1199,0.0
1286,0.0
1310,0.0
1335,0.0
1360,0.0
1389,0.0
1502,0.0
2,2, 1, 2, 0, 3, 0.00,60.00,Monday
9,780800768.3075506
45,58596598.456401038
207,351579590.7384068
969,31014028.847116285
999,124269734.55483864
1075,114893757.1485642
1150,2510749.454457662
1175,0.19762191123220516
1199,0.19762191123220516
1286,2250131278.533431
1310,2250131278.533431
1335,0.0
1360,97936309.10776586
1389,0.0
1502,0.0
2,2, 1, 2, 0, 4, 0.00,60.00,Monday
9,534445923.74964657
45,58596598.456401038
207,351579590.7384068
969,0.0
999,124269734.55483864
1075,0.0
1150,0.0
1175,0.0
1199,0.0
1286,7221342.680198676
1310,0.0
1335,0.0
1360,0.0
1389,0.0
1502,7221342.680198676
2,2, 1, 2, 0, 5, 0.00,60.00,Monday
9,786277841.225399
45,58596598.456401038
207,351579590.7384068
969,31014028.847116285
999,124269734.55483864
1075,120827589.0704652
1150,2577968.6911892245
1175,0.355050858456324
1199,0.355050858456324
1286,1950504987.946595
1310,1950504987.946595
1335,0.0
1360,97412330.86698178
1389,0.0
1502,0.0
2,2, 1, 2, 0, 6, 0.00,60.00,Monday
9,848381012.0171143
45,117193196.91280207
207,371362721.03565779
969,12346130.932072565
999,124269734.55483864
1075,123976531.54083441
1150,2729686.2864994646
1175,0.21103398046316697
1199,0.21103398046316697
1286,1078980475.3143178
1310,1078980475.3143178
1335,0.0
1360,96503010.75440932
1389,0.0
1502,0.0
2,2, 1, 2, 0, 7, 0.00,60.00,Monday
9,979927423.256754
45,117193196.91280207
207,371362721.03565779
969,31014028.84711628
999,131118192.48345293
1075,224438738.81011576
1150,4563029.027252262
1175,0.4078204103455887
1199,0.32574504258755929
1286,3041976406.508308
1310,2995439990.77728
1335,0.0
1360,100237516.14035681
1389,0.08207536775802942
1502,46536415.731027897
2,2, 1, 2, 0, 8, 0.00,60.00,Monday
9,999289251.91822
45,351579590.7384062
207,465498976.8082448
969,43360159.77918885
999,131118192.48345293
1075,0.0
1150,0.0
1175,0.22277599820036549
1199,0.0
1286,4313497514.312982
1310,4242754458.3496267
1335,0.0
1360,7732332.108927441
1389,0.22277599820036549
1502,70743055.96335544
2,2, 1, 2, 0, 9, 0.00,60.00,Monday
9,1894456408.559508
45,1054738772.2152186
207,791054079.1614153
969,43360159.77918886
999,0.0
1075,0.0
1150,0.0
1175,0.41037683879014699
1199,0.0
1286,3423910858.6052577
1310,3310379096.83633
1335,0.0
1360,5303397.403684593
1389,0.41037683879014699
1502,113531761.76892777
2,2, 1, 2, 0,10, 0.00,60.00,Monday
9,1893534176.4201585
45,1054738772.2152186
207,791054079.1614153
969,43360159.77918884
999,0.0
1075,0.0
1150,0.0
1175,0.44555199640073109
1199,0.0
1286,3067262356.529136
1310,2934051972.1648199
1335,0.0
1360,4381165.264334801
1389,0.44555199640073109
1502,133210384.36431664
2,2, 1, 2, 0,11, 0.00,60.00,Monday
9,1892749386.8859277
45,1054738772.2152186
207,791054079.1614153
969,43360159.77918885
999,0.0
1075,0.0
1150,0.0
1175,0.45727704893759238
1199,0.0
1286,2709696711.9712889
1310,2585340250.699542
1335,0.0
1360,3596375.7301040606
1389,0.45727704893759238
1502,124356461.27174664
2,2, 1, 2, 0,12, 0.00,60.00,Monday
9,1962341461.303819
45,1054738772.2152186
207,861525962.5669823
969,43360159.77918885
999,0.0
1075,0.0
1150,0.0
1175,0.5510774692324831
1199,0.0
1286,2291098956.205423
1310,2134542042.0900269
1335,0.0
1360,2716566.742428576
1389,0.5510774692324831
1502,156556914.11539615
2,2, 1, 2, 0,13, 0.00,60.00,Monday
9,1874528019.6423424
45,1054738772.2152186
207,773631064.8823805
969,43360159.77918885
999,0.0
1075,0.0
1150,0.0
1175,0.6683279946010965
1199,0.0
1286,2397415537.43562
1310,2216662680.317895
1335,0.0
1360,2798022.765554898
1389,0.6683279946010965
1502,180752857.11772476
2,2, 1, 2, 0,14, 0.00,60.00,Monday
9,1891576284.5775619
45,1054738772.2152186
207,791054079.1614153
969,43360159.77918885
999,0.0
1075,0.0
1150,0.0
1175,0.6331528369905125
1199,0.0
1286,2140378039.207221
1310,1964344048.2076872
1335,0.0
1360,2423273.421738275
1389,0.6331528369905125
1502,176033990.99953384
2,2, 1, 2, 0,15, 0.00,60.00,Monday
9,1891159235.9496604
45,1054738772.2152186
207,791054079.1614153
969,43360159.77918885
999,0.0
1075,0.0
1150,0.0
1175,0.3986517862532857
1199,0.0
1286,1813663410.1796175
1310,1694873674.5926777
1335,0.0
1360,2006224.793836696
1389,0.3986517862532857
1502,118789735.58693975
2,2, 1, 2, 0,16, 0.00,60.00,Monday
9,1891080909.106745
45,1054738772.2152186
207,791054079.1614153
969,43360159.77918885
999,0.0
1075,0.0
1150,0.0
1175,0.38692673371642435
1199,0.0
1286,1768710199.8767503
1310,1656360733.7257477
1335,0.0
1360,1927897.9509213432
1389,0.38692673371642435
1502,112349466.1510027
2,2, 1, 2, 0,17, 0.00,60.00,Monday
9,1990595011.8441687
45,1054738772.2152186
207,890490964.3431625
969,43360159.77918885
999,0.0
1075,0.0
1150,0.0
1175,0.5159023116218992
1199,0.0
1286,1856369664.9795807
1310,1714270113.3686789
1335,0.0
1360,2005115.5065980145
1389,0.5159023116218992
1502,142099551.61090175
2,2, 1, 2, 0,18, 0.00,60.00,Monday
9,1237233277.7239865
45,585965984.5640103
207,473740119.6083498
969,43360159.77918884
999,131118192.48345293
1075,0.0
1150,0.0
1175,0.3048513659583949
1199,0.0
1286,2494336054.7579705
1310,2401364346.6988165
1335,0.0
1360,3048821.2889843897
1389,0.3048513659583949
1502,92971708.05915421
2,2, 1, 2, 0,19, 0.00,60.00,Monday
9,1210051331.1337553
45,351579590.7384062
207,351579590.7384068
969,22879483.476670237
999,131118192.48345293
1075,260096014.91412733
1150,5286371.756458014
1175,0.6025592319824499
1199,0.35633312870836178
1286,1714310085.6263023
1310,1635314103.976544
1335,0.0
1360,87512087.02623366
1389,0.24622610327408815
1502,78995981.64975834
2,2, 1, 2, 0,20, 0.00,60.00,Monday
9,834331837.0009368
45,351579590.7384062
207,351579590.7384068
969,0.0
999,131118192.48345293
1075,0.0
1150,0.0
1175,0.17587578805292013
1199,0.0
1286,61763536.944803487
1310,0.0
1335,0.0
1360,54463.04067100613
1389,0.17587578805292013
1502,61763536.944803487
2,2, 1, 2, 0,21, 0.00,60.00,Monday
9,1181561500.6714953
45,234386393.82560415
207,351579590.7384068
969,30149047.94391076
999,131118192.48345293
1075,329542652.62046858
1150,6452491.551948246
1175,0.6347478475359971
1199,0.43542195440935435
1286,2434423504.163876
1310,2374855316.2253649
1335,0.0
1360,98333131.50770357
1389,0.19932589312664279
1502,59568187.93851127
2,2, 1, 2, 0,22, 0.00,60.00,Monday
9,850412934.1057148
45,234386393.82560415
207,364121470.5916127
969,3935754.0933482137
999,131118192.48345293
1075,44311618.027802597
1150,1173848.7120611615
1175,0.21252607467299229
1199,0.11872565437810152
1286,244581268.68659009
1310,202494635.39853556
1335,0.0
1360,71365656.37183316
1389,0.09380042029489076
1502,42086633.288054529
2,2, 1, 2, 0,23, 0.00,60.00,Monday
9,697202775.677575
45,117193196.91280207
207,351579590.7384068
969,7147829.108666596
999,131118192.48345293
1075,36425728.90864645
1150,847744.353254497
1175,0.15164178405862067
1199,0.09301652137431399
1286,200496913.7332647
1310,167722491.16225339
1335,0.0
1360,52890493.172345567
1389,0.05862526268430669
1502,32774422.571011336
2,2, 1, 2, 0,24, 0.00,60.00,Monday
9,541348844.7189318
45,58596598.456401038
207,351579590.7384068
969,0.0
999,131118192.48345293
1075,0.0
1150,0.0
1175,0.05862526268430672
1199,0.0
1286,24502154.52821414
1310,0.0
1335,0.0
1360,54463.040671006136
1389,0.05862526268430672
1502,24502154.52821414
3,2, 1, 2, 0,Monday
11,29984759333.109636,534445923.74964657, 2,60,1990595011.8441687,17,60
1288,43086149179.67441,0.0, 2,60,4313497514.312982, 8,60
2,3, 1, 3, 0, 1, 0.00,60.00,Tuesday
9,718987158.0785842
45,58596598.456401038
207,351579590.7384068
969,15974208.387271798
999,124269734.55483864
1075,71017464.50946746
1150,1609754.834940927
1175,0.18659433983237198
1199,0.18659433983237198
1286,1042590762.2622869
1310,1042590762.2622869
1335,0.0
1360,95939806.59725747
1389,0.0
1502,0.0
2,3, 1, 3, 0, 2, 0.00,60.00,Tuesday
9,534445923.74964657
45,58596598.456401038
207,351579590.7384068
969,0.0
999,124269734.55483864
1075,0.0
1150,0.0
1175,0.0
1199,0.0
1286,7222436.318734961
1310,0.0
1335,0.0
1360,0.0
1389,0.0
1502,7222436.318734961
2,3, 1, 3, 0, 3, 0.00,60.00,Tuesday
9,721505246.5547098
45,58596598.456401038
207,351579590.7384068
969,17153605.17877691
999,124269734.55483864
1075,72606748.77180059
1150,1617029.1768108737
1175,0.17094464872406227
1199,0.17094464872406227
1286,843469215.3817595
1310,843469215.3817595
1335,0.0
1360,95681939.67767477
1389,0.0
1502,0.0
2,3, 1, 3, 0, 4, 0.00,60.00,Tuesday
9,534445923.74964657
45,58596598.456401038
207,351579590.7384068
969,0.0
999,124269734.55483864
1075,0.0
1150,0.0
1175,0.0
1199,0.0
1286,0.0
1310,0.0
1335,0.0
1360,0.0
1389,0.0
1502,0.0
2,3, 1, 3, 0, 5, 0.00,60.00,Tuesday
9,743303380.3458531
45,58596598.456401038
207,351579590.7384068
969,23050589.136302476
999,124269734.55483864
1075,86652022.32763103
1150,1835740.0003004305
1175,0.20513050192046956
1199,0.20513050192046956
1286,1951717753.2339895
1310,1951717753.2339895
1335,0.0
1360,97319105.1319727
1389,0.0
1502,0.0
2,3, 1, 3, 0, 6, 0.00,60.00,Tuesday
9,949289454.8664428
45,117193196.91280207
207,371362721.03565779
969,20309570.642886376
999,124269734.55483864
1075,215280849.00703628
1150,4009986.783282589
1175,0.3219049591755717
1199,0.3219049591755717
1286,1303796495.996081
1310,1296574010.9885948
1335,0.0
1360,96863395.92993909
1389,0.0
1502,7222485.007486385
2,3, 1, 3, 0, 7, 0.00,60.00,Tuesday
9,876019489.8321747
45,117193196.91280207
207,371362721.03565779
969,23050589.13630248
999,131118192.48345293
1075,131719201.19112931
1150,2609129.989977868
1175,0.3449614081833451
1199,0.26288604042531568
1286,2571526058.05962
1310,2528385577.24115
1335,0.0
1360,98966459.08285217
1389,0.08207536775802943
1502,43140480.81847009
2,3, 1, 3, 0, 8, 0.00,60.00,Tuesday
9,999250833.2577276
45,351579590.7384062
207,465498976.8082448
969,43360159.77918886
999,131118192.48345293
1075,0.0
1150,0.0
1175,0.22277599820036549
1199,0.0
1286,4312826945.082756
1310,4243129573.573505
1335,0.0
1360,7693913.448434948
1389,0.22277599820036549
1502,69697371.50925099
2,3, 1, 3, 0, 9, 0.00,60.00,Tuesday
9,1894635932.9177182
45,1054738772.2152186
207,791054079.1614153
969,43360159.77918886
999,0.0
1075,0.0
1150,0.0
1175,0.4103768387901471
1199,0.0
1286,3381863869.7883398
1310,3265665133.0039179
1335,0.0
1360,5482921.761894627
1389,0.4103768387901471
1502,116198736.78442207
2,3, 1, 3, 0,10, 0.00,60.00,Tuesday
9,1894730976.4964665
45,1054738772.2152186
207,791054079.1614153
969,43360159.77918885
999,0.0
1075,0.0
1150,0.0
1175,0.44555199640073109
1199,0.0
1286,3454139034.0344579
1310,3327007832.2438518
1335,0.0
1360,5577965.340642914
1389,0.44555199640073109
1502,127131201.79060588
2,3, 1, 3, 0,11, 0.00,60.00,Tuesday
9,1894347610.6970778
45,1054738772.2152186
207,791054079.1614153
969,43360159.77918885
999,0.0
1075,0.0
1150,0.0
1175,0.45727704893759238
1199,0.0
1286,3253878668.255012
1310,3120672051.4872596
1335,0.0
1360,5194599.541254273
1389,0.45727704893759238
1502,133206616.76775246
2,3, 1, 3, 0,12, 0.00,60.00,Tuesday
9,1964153481.2263942
45,1054738772.2152186
207,861525962.5669823
969,43360159.77918885
999,0.0
1075,0.0
1150,0.0
1175,0.5510774692324831
1199,0.0
1286,2980972420.0243699
1310,2826357144.414833
1335,0.0
1360,4528586.665004011
1389,0.5510774692324831
1502,154615275.60953684
2,3, 1, 3, 0,13, 0.00,60.00,Tuesday
9,1876718206.6085323
45,1054738772.2152186
207,773631064.8823805
969,43360159.77918885
999,0.0
1075,0.0
1150,0.0
1175,0.6683279946010965
1199,0.0
1286,3224045984.1146275
1310,3043970024.994747
1335,0.0
1360,4988209.731744664
1389,0.6683279946010965
1502,180075959.11988027
2,3, 1, 3, 0,14, 0.00,60.00,Tuesday
9,1893830588.3779615
45,1054738772.2152186
207,791054079.1614153
969,43360159.77918885
999,0.0
1075,0.0
1150,0.0
1175,0.6331528369905125
1199,0.0
1286,3043372797.3665854
1310,2864069607.606188
1335,0.0
1360,4677577.222137868
1389,0.6331528369905125
1502,179303189.7603975
2,3, 1, 3, 0,15, 0.00,60.00,Tuesday
9,1893504341.0995675
45,1054738772.2152186
207,791054079.1614153
969,43360159.77918885
999,0.0
1075,0.0
1150,0.0
1175,0.3986517862532857
1199,0.0
1286,2818382876.1212899
1310,2707054417.284346
1335,0.0
1360,4351329.9437438049
1389,0.3986517862532857
1502,111328458.83694354
2,3, 1, 3, 0,16, 0.00,60.00,Tuesday
9,1893279117.434632
45,1054738772.2152186
207,791054079.1614153
969,43360159.77918885
999,0.0
1075,0.0
1150,0.0
1175,0.38692673371642435
1199,0.0
1286,2729380536.4658958
1310,2613283750.768804
1335,0.0
1360,4126106.2788084258
1389,0.38692673371642435
1502,116096785.69709139
2,3, 1, 3, 0,17, 0.00,60.00,Tuesday
9,1992911724.904994
45,1054738772.2152186
207,890490964.3431625
969,43360159.77918885
999,0.0
1075,0.0
1150,0.0
1175,0.5159023116218992
1199,0.0
1286,2831995685.306378
1310,2685427280.2644288
1335,0.0
1360,4321828.567423557
1389,0.5159023116218992
1502,146568405.0419493
2,3, 1, 3, 0,18, 0.00,60.00,Tuesday
9,1239951212.8767489
45,585965984.5640103
207,473740119.6083498
969,43360159.77918885
999,131118192.48345293
1075,0.0
1150,0.0
1175,0.30485136595839498
1199,0.0
1286,3501242991.6757757
1310,3408669383.993319
1335,0.0
1360,5766756.441746745
1389,0.30485136595839498
1502,92573607.68245673
2,3, 1, 3, 0,19, 0.00,60.00,Tuesday
9,1200883140.7882717
45,351579590.7384062
207,351579590.7384068
969,22791348.518768364
999,131118192.48345293
1075,247785030.1489523
1150,4250152.163641881
1175,0.5758329158705753
1199,0.32960681259648719
1286,2150403441.8236305
1310,2075328097.3450802
1335,0.0
1360,91779235.99664343
1389,0.24622610327408815
1502,75075344.47855014
2,3, 1, 3, 0,20, 0.00,60.00,Tuesday
9,834331837.0009368
45,351579590.7384062
207,351579590.7384068
969,0.0
999,131118192.48345293
1075,0.0
1150,0.0
1175,0.17587578805292015
1199,0.0
1286,57075946.04569943
1310,0.0
1335,0.0
1360,54463.04067100615
1389,0.17587578805292015
1502,57075946.04569943
2,3, 1, 3, 0,21, 0.00,60.00,Tuesday
9,1134732156.841223
45,234386393.82560415
207,351579590.7384068
969,28298261.26076676
999,131118192.48345293
1075,285972305.7283639
1150,4868149.335663959
1175,0.56476850928486
1199,0.3654426161582171
1286,2433801266.6002876
1310,2365171173.788913
1335,0.0
1360,98509263.46896462
1389,0.1993258931266429
1502,68630092.81137482
2,3, 1, 3, 0,22, 0.00,60.00,Tuesday
9,729680519.9413406
45,234386393.82560415
207,364121470.5916127
969,0.0
999,131118192.48345293
1075,0.0
1150,0.0
1175,0.09380042029489075
1199,0.0
1286,34158875.66516793
1310,0.0
1335,0.0
1360,54463.040671006136
1389,0.09380042029489075
1502,34158875.66516793
2,3, 1, 3, 0,23, 0.00,60.00,Tuesday
9,718159060.4771018
45,117193196.91280207
207,351579590.7384068
969,9459015.339247527
999,131118192.48345293
1075,47057891.49991438
1150,995210.3008604202
1175,0.1791189087568396
1199,0.1204936460725329
1286,357107950.5547408
1310,324266226.47580596
1335,0.0
1360,60755963.202417608
1389,0.05862526268430671
1502,32841724.078934824
2,3, 1, 3, 0,24, 0.00,60.00,Tuesday
9,541348844.7189318
45,58596598.456401038
207,351579590.7384068
969,0.0
999,131118192.48345293
1075,0.0
1150,0.0
1175,0.05862526268430671
1199,0.0
1286,32694019.888603465
1310,0.0
1335,0.0
1360,54463.040671006136
1389,0.05862526268430671
1502,32694019.888603465
3,3, 1, 3, 0,Tuesday
11,29674446162.842687,534445923.74964657, 2,60,1992911724.904994,17,60
1288,48317666030.066089,0.0, 4,60,4312826945.082756, 8,60
2,4, 1, 4, 0, 1, 0.00,60.00,Wednesday
9,733754451.4418377
45,58596598.456401038
207,351579590.7384068
969,19512398.761787137
999,124269734.55483864
1075,81673007.2968956
1150,1583329.0722215363
1175,0.19054313511794652
1199,0.19054313511794652
1286,1429314015.9246174
1310,1429273495.2747534
1335,0.0
1360,96539792.56128684
1389,0.0
1502,40520.64986396537
2,4, 1, 4, 0, 2, 0.00,60.00,Wednesday
9,534445923.74964657
45,58596598.456401038
207,351579590.7384068
969,0.0
999,124269734.55483864
1075,0.0
1150,0.0
1175,0.0
1199,0.0
1286,0.0
1310,0.0
1335,0.0
1360,0.0
1389,0.0
1502,0.0
2,4, 1, 4, 0, 3, 0.00,60.00,Wednesday
9,749826360.6573839
45,58596598.456401038
207,351579590.7384068
969,23050589.13630248
999,124269734.55483864
1075,94165310.02794709
1150,1750180.82078519
1175,0.15643671627612969
1199,0.15643671627612969
1286,1387611476.9231649
1310,1387611476.9231649
1335,0.0
1360,96414356.9227025
1389,0.0
1502,0.0
2,4, 1, 4, 0, 4, 0.00,60.00,Wednesday
9,534445923.74964657
45,58596598.456401038
207,351579590.7384068
969,0.0
999,124269734.55483864
1075,0.0
1150,0.0
1175,0.0
1199,0.0
1286,0.0
1310,0.0
1335,0.0
1360,0.0
1389,0.0
1502,0.0
2,4, 1, 4, 0, 5, 0.00,60.00,Wednesday
9,744531660.6658937
45,58596598.456401038
207,351579590.7384068
969,23050589.136302476
999,124269734.55483864
1075,88195786.75981583
1150,1600748.0952910502
1175,0.11813605238907173
1199,0.11813605238907173
1286,1922659510.1149259
1310,1915437011.209376
1335,0.0
1360,97238612.92483777
1389,0.0
1502,7222498.905549814
2,4, 1, 4, 0, 6, 0.00,60.00,Wednesday
9,947905781.1828642
45,117193196.91280207
207,371362721.03565779
969,20309570.642886376
999,124269734.55483864
1075,214587548.7019454
1150,3468667.0187967836
1175,0.2092168506960661
1199,0.2092168506960661
1286,1280132027.719839
1310,1280132027.719839
1335,0.0
1360,96714342.31593724
1389,0.0
1502,0.0
2,4, 1, 4, 0, 7, 0.00,60.00,Wednesday
9,871362920.3526751
45,117193196.91280207
207,371362721.03565779
969,23050589.13630248
999,131118192.48345293
1075,127510907.36249714
1150,2182103.6383435938
1175,0.24687604947563272
1199,0.1648006817176033
1286,2575614626.9385435
1310,2530032730.5666716
1335,0.0
1360,98945209.78361909
1389,0.08207536775802943
1502,45581896.37187194
2,4, 1, 4, 0, 8, 0.00,60.00,Wednesday
9,1003343721.5572232
45,351579590.7384062
207,465498976.8082448
969,43360159.77918885
999,131118192.48345293
1075,0.0
1150,0.0
1175,0.2227759982003655
1199,0.0
1286,5220956008.384067
1310,5150055844.739561
1335,0.0
1360,11786801.747930497
1389,0.2227759982003655
1502,70900163.6445051
2,4, 1, 4, 0, 9, 0.00,60.00,Wednesday
9,1898015988.4480553
45,1054738772.2152186
207,791054079.1614153
969,43360159.77918886
999,0.0
1075,0.0
1150,0.0
1175,0.41037683879014699
1199,0.0
1286,4157105370.085711
1310,4045376626.5298926
1335,0.0
1360,8862977.292231664
1389,0.41037683879014699
1502,111728743.55581877
2,4, 1, 4, 0,10, 0.00,60.00,Wednesday
9,1895801939.2674294
45,1054738772.2152186
207,791054079.1614153
969,43360159.77918885
999,0.0
1075,0.0
1150,0.0
1175,0.445551996400731
1199,0.0
1286,3606983560.539612
1310,3473475821.219096
1335,0.0
1360,6648928.111605752
1389,0.445551996400731
1502,133507739.32051566
2,4, 1, 4, 0,11, 0.00,60.00,Wednesday
9,1894743368.406517
45,1054738772.2152186
207,791054079.1614153
969,43360159.77918885
999,0.0
1075,0.0
1150,0.0
1175,0.45727704893759238
1199,0.0
1286,3259898431.119381
1310,3132967289.73352
1335,0.0
1360,5590357.250693522
1389,0.45727704893759238
1502,126931141.38586083
2,4, 1, 4, 0,12, 0.00,60.00,Wednesday
9,1964792969.73301
45,1054738772.2152186
207,861525962.5669823
969,43360159.77918885
999,0.0
1075,0.0
1150,0.0
1175,0.5510774692324831
1199,0.0
1286,3164204923.678953
1310,3006960180.7964746
1335,0.0
1360,5168075.171619736
1389,0.5510774692324831
1502,157244742.8824786
2,4, 1, 4, 0,13, 0.00,60.00,Wednesday
9,1877022065.143414
45,1054738772.2152186
207,773631064.8823805
969,43360159.77918885
999,0.0
1075,0.0
1150,0.0
1175,0.6683279946010965
1199,0.0
1286,3233013762.166422
1310,3054139408.774102
1335,0.0
1360,5292068.266626522
1389,0.6683279946010965
1502,178874353.39231969
2,4, 1, 4, 0,14, 0.00,60.00,Wednesday
9,1894013340.2763539
45,1054738772.2152186
207,791054079.1614153
969,43360159.77918885
999,0.0
1075,0.0
1150,0.0
1175,0.6331528369905125
1199,0.0
1286,3054747903.0060789
1310,2874630265.9350817
1335,0.0
1360,4860329.120530301
1389,0.6331528369905125
1502,180117637.07099743
2,4, 1, 4, 0,15, 0.00,60.00,Wednesday
9,1894198617.9156047
45,1054738772.2152186
207,791054079.1614153
969,43360159.77918885
999,0.0
1075,0.0
1150,0.0
1175,0.3986517862532857
1199,0.0
1286,3057732227.1218979
1310,2944531548.887172
1335,0.0
1360,5045606.759780956
1389,0.3986517862532857
1502,113200678.23472566
2,4, 1, 4, 0,16, 0.00,60.00,Wednesday
9,1894348230.7077797
45,1054738772.2152186
207,791054079.1614153
969,43360159.77918885
999,0.0
1075,0.0
1150,0.0
1175,0.38692673371642435
1199,0.0
1286,3104732654.3531119
1310,2986421091.786404
1335,0.0
1360,5195219.551956115
1389,0.38692673371642435
1502,118311562.56670779
2,4, 1, 4, 0,17, 0.00,60.00,Wednesday
9,1994010642.2590092
45,1054738772.2152186
207,890490964.3431625
969,43360159.77918885
999,0.0
1075,0.0
1150,0.0
1175,0.5159023116218992
1199,0.0
1286,3217229602.0442626
1310,3074684158.531768
1335,0.0
1360,5420745.921438621
1389,0.5159023116218992
1502,142545443.5124944
2,4, 1, 4, 0,18, 0.00,60.00,Wednesday
9,1240390555.1069713
45,585965984.5640103
207,473740119.6083498
969,43360159.77918885