Program Version,EnergyPlus, Version 9.4.0-998c4b761e, YMD=2021.04.05 22:23
1,5,Environment Title[],Latitude[deg],Longitude[deg],Time Zone[],Elevation[m]
2,8,Day of Simulation[],Month[],Day of Month[],DST Indicator[1=yes 0=no],Hour[],StartMinute[],EndMinute[],DayType
3,5,Cumulative Day of Simulation[],Month[],Day of Month[],DST Indicator[1=yes 0=no],DayType  ! When Daily Report Variables Requested
4,2,Cumulative Days of Simulation[],Month[]  ! When Monthly Report Variables Requested
5,1,Cumulative Days of Simulation[] ! When Run Period Report Variables Requested
6,1,Calendar Year of Simulation[] ! When Annual Report Variables Requested
7,9,Environment,Site Outdoor Air Drybulb Temperature [C] !Monthly [Value,Min,Day,Hour,Minute,Max,Day,Hour,Minute]
433,1,BUILDING STORY 1 THERMALZONE,Zone Air Temperature [C] !Hourly
434,1,BUILDING STORY 1 THERMALZONE,Zone Air Relative Humidity [%] !Hourly
473,1,BUILDING STORY 2 THERMALZONE,Zone Air Temperature [C] !Hourly
474,1,BUILDING STORY 2 THERMALZONE,Zone Air Relative Humidity [%] !Hourly
513,1,BUILDING STORY 3 THERMALZONE,Zone Air Temperature [C] !Hourly
514,1,BUILDING STORY 3 THERMALZONE,Zone Air Relative Humidity [%] !Hourly
553,1,BUILDING STORY 4 THERMALZONE,Zone Air Temperature [C] !Hourly
554,1,BUILDING STORY 4 THERMALZONE,Zone Air Relative Humidity [%] !Hourly
593,1,BUILDING STORY 5 THERMALZONE,Zone Air Temperature [C] !Hourly
594,1,BUILDING STORY 5 THERMALZONE,Zone Air Relative Humidity [%] !Hourly
633,1,BUILDING STORY 6 THERMALZONE,Zone Air Temperature [C] !Hourly
634,1,BUILDING STORY 6 THERMALZONE,Zone Air Relative Humidity [%] !Hourly
844,1,BUILDING STORY 1 THERMALZONE REHEAT COIL,Heating Coil Heating Rate [W] !Hourly
845,1,BUILDING STORY 1 THERMALZONE REHEAT COIL,Heating Coil Heating Rate [W] !TimeStep
848,1,BUILDING STORY 2 THERMALZONE REHEAT COIL,Heating Coil Heating Rate [W] !Hourly
849,1,BUILDING STORY 2 THERMALZONE REHEAT COIL,Heating Coil Heating Rate [W] !TimeStep
852,1,BUILDING STORY 3 THERMALZONE REHEAT COIL,Heating Coil Heating Rate [W] !Hourly
853,1,BUILDING STORY 3 THERMALZONE REHEAT COIL,Heating Coil Heating Rate [W] !TimeStep
856,1,BUILDING STORY 4 THERMALZONE REHEAT COIL,Heating Coil Heating Rate [W] !Hourly
857,1,BUILDING STORY 4 THERMALZONE REHEAT COIL,Heating Coil Heating Rate [W] !TimeStep
860,1,BUILDING STORY 5 THERMALZONE REHEAT COIL,Heating Coil Heating Rate [W] !Hourly
861,1,BUILDING STORY 5 THERMALZONE REHEAT COIL,Heating Coil Heating Rate [W] !TimeStep
864,1,BUILDING STORY 6 THERMALZONE REHEAT COIL,Heating Coil Heating Rate [W] !Hourly
865,1,BUILDING STORY 6 THERMALZONE REHEAT COIL,Heating Coil Heating Rate [W] !TimeStep
868,1,1 ZONE VAV MAIN HTG COIL,Heating Coil Heating Rate [W] !Hourly
869,1,1 ZONE VAV MAIN HTG COIL,Heating Coil Heating Rate [W] !TimeStep
872,1,1 ZONE VAV 1 MAIN HTG COIL,Heating Coil Heating Rate [W] !Hourly
873,1,1 ZONE VAV 1 MAIN HTG COIL,Heating Coil Heating Rate [W] !TimeStep
876,1,1 ZONE VAV 2 MAIN HTG COIL,Heating Coil Heating Rate [W] !Hourly
877,1,1 ZONE VAV 2 MAIN HTG COIL,Heating Coil Heating Rate [W] !TimeStep
880,1,1 ZONE VAV 3 MAIN HTG COIL,Heating Coil Heating Rate [W] !Hourly
881,1,1 ZONE VAV 3 MAIN HTG COIL,Heating Coil Heating Rate [W] !TimeStep
884,1,1 ZONE VAV 4 MAIN HTG COIL,Heating Coil Heating Rate [W] !Hourly
885,1,1 ZONE VAV 4 MAIN HTG COIL,Heating Coil Heating Rate [W] !TimeStep
888,1,1 ZONE VAV 5 MAIN HTG COIL,Heating Coil Heating Rate [W] !Hourly
889,1,1 ZONE VAV 5 MAIN HTG COIL,Heating Coil Heating Rate [W] !TimeStep
940,1,1 ZONE VAV CLG COIL,Cooling Coil Total Cooling Rate [W] !TimeStep
943,1,1 ZONE VAV 1 CLG COIL,Cooling Coil Total Cooling Rate [W] !TimeStep
946,1,1 ZONE VAV 2 CLG COIL,Cooling Coil Total Cooling Rate [W] !TimeStep
949,1,1 ZONE VAV 3 CLG COIL,Cooling Coil Total Cooling Rate [W] !TimeStep
952,1,1 ZONE VAV 4 CLG COIL,Cooling Coil Total Cooling Rate [W] !TimeStep
955,1,1 ZONE VAV 5 CLG COIL,Cooling Coil Total Cooling Rate [W] !TimeStep
1335,1,Heating:Electricity [J] !TimeStep
1310,1,Heating:NaturalGas [J] !TimeStep
1075,1,Cooling:Electricity [J] !TimeStep
45,1,InteriorLights:Electricity [J] !TimeStep
999,1,ExteriorLights:Electricity [J] !TimeStep
207,1,InteriorEquipment:Electricity [J] !TimeStep
969,1,Fans:Electricity [J] !TimeStep
1360,1,Pumps:Electricity [J] !TimeStep
1150,1,HeatRejection:Electricity [J] !TimeStep
1199,1,HeatRejection:Water [m3] !TimeStep
1502,1,WaterSystems:NaturalGas [J] !TimeStep
1389,1,WaterSystems:Water [m3] !TimeStep
9,1,Electricity:Facility [J] !TimeStep
1286,1,NaturalGas:Facility [J] !TimeStep
1175,1,Water:Facility [m3] !TimeStep
End of Data Dictionary
1,RUN PERIOD 1,  42.93, -78.73,  -5.00, 215.00
2,1, 1, 1, 0, 1, 0.00,60.00,Sunday
845,0.0
849,0.0
853,91540.00545135309
857,97250.61865089664
861,33239.70668024288
865,59264.14745192294
869,0.0
873,0.0
877,0.0
881,0.0
885,0.0
889,0.0
940,0.0
943,0.0
946,13319.854409572858
949,13907.19328920963
952,18748.506243443255
955,13329.248488540568
9,682542826.7683041
45,58596598.456401038
207,263684693.05380506
969,27172263.991065869
999,124269734.55483864
1075,109735862.80876737
1150,2479208.793463963
1175,0.19598998915106748
1199,0.19598998915106748
1286,1450791530.0918816
1310,1450791530.0918816
1335,0.0
1360,96604465.1099622
1389,0.0
1502,0.0
2,1, 1, 1, 0, 1, 0.00,60.00,Sunday
433,18.523754688238108
434,27.784527985895399
473,17.124380849333745
474,28.864591703838426
513,15.231823802988778
514,29.597576381730936
553,15.207521271493011
554,29.56223922563288
593,15.58842270453713
594,30.510264255066966
633,15.45136415387271
634,30.53996061383444
844,0.0
848,0.0
852,91540.00545135309
856,97250.61865089664
860,33239.70668024288
864,59264.14745192294
868,0.0
872,0.0
876,0.0
880,0.0
884,0.0
888,0.0
2,1, 1, 1, 0, 2, 0.00,60.00,Sunday
845,0.0
849,0.0
853,0.0
857,0.0
861,0.0
865,0.0
869,0.0
873,0.0
877,0.0
881,0.0
885,0.0
889,0.0
940,0.0
943,0.0
946,0.0
949,0.0
952,0.0
955,0.0
9,446551026.06504479
45,58596598.456401038
207,263684693.05380506
969,0.0
999,124269734.55483864
1075,0.0
1150,0.0
1175,0.0
1199,0.0
1286,0.0
1310,0.0
1335,0.0
1360,0.0
1389,0.0
1502,0.0
2,1, 1, 1, 0, 2, 0.00,60.00,Sunday
433,18.481017440305135
434,27.770479823055188
473,17.03075541390245
474,28.951547180306343
513,12.294843721049201
514,35.97731706982254
553,12.100578965623252
554,36.3821353108934
593,14.937280168357246
594,31.75045524412338
633,13.683099184183984
634,34.19857156137873
844,0.0
848,0.0
852,0.0
856,0.0
860,0.0
864,0.0
868,0.0
872,0.0
876,0.0
880,0.0
884,0.0
888,0.0
2,1, 1, 1, 0, 3, 0.00,60.00,Sunday
845,0.0
849,0.0
853,114227.32504972314
857,122945.99757198955
861,32542.481420502863
865,53620.796707523354
869,0.0
873,0.0
877,81.55375026269786
881,222.58989177588689
885,0.0
889,0.0
940,0.0
943,0.0
946,15425.331206970513
949,16156.124005778565
952,19058.10500453544
955,15885.568008965589
9,699265782.8248375
45,58596598.456401038
207,263684693.05380506
969,31014028.84711628
999,124269734.55483864
1075,122093744.55070113
1150,2675930.2169905717
1175,0.22746352659768974
1199,0.22746352659768974
1286,1726818517.4142433
1310,1726818517.4142433
1335,0.0
1360,96931053.14498483
1389,0.0
1502,0.0
2,1, 1, 1, 0, 3, 0.00,60.00,Sunday
433,18.571979540383209
434,27.527888906930863
473,17.123710741495775
474,28.680789248396218
513,15.346776578418713
514,29.130883965460464
553,15.32637608890289
554,29.093514157390236
593,15.595349074527814
594,30.325842100776894
633,15.542234408027034
634,30.19809789809179
844,0.0
848,0.0
852,114227.32504972314
856,122945.99757198955
860,32542.481420502863
864,53620.796707523354
868,0.0
872,0.0
876,81.55375026269786
880,222.58989177588689
884,0.0
888,0.0
2,1, 1, 1, 0, 4, 0.00,60.00,Sunday
845,0.0
849,0.0
853,0.0
857,0.0
861,0.0
865,0.0
869,0.0
873,0.0
877,0.0
881,0.0
885,0.0
889,0.0
940,0.0
943,0.0
946,0.0
949,0.0
952,0.0
955,0.0
9,446551026.06504479
45,58596598.456401038
207,263684693.05380506
969,0.0
999,124269734.55483864
1075,0.0
1150,0.0
1175,0.0
1199,0.0
1286,0.0
1310,0.0
1335,0.0
1360,0.0
1389,0.0
1502,0.0
2,1, 1, 1, 0, 4, 0.00,60.00,Sunday
433,18.80159051877827
434,27.148971962514076
473,17.384344215447354
474,28.228103650978697
513,13.723037169744967
514,32.38963560965315
553,13.682793307030185
554,32.39020590221944
593,15.357974471784214
594,30.808531959884364
633,13.981679709895833
634,33.42604297959827
844,0.0
848,0.0
852,0.0
856,0.0
860,0.0
864,0.0
868,0.0
872,0.0
876,0.0
880,0.0
884,0.0
888,0.0
2,1, 1, 1, 0, 5, 0.00,60.00,Sunday
845,0.0
849,0.0
853,73307.20143722839
857,77239.41134010419
861,12230.818402503884
865,54175.59428606543
869,0.0
873,0.0
877,0.0
881,0.0
885,0.0
889,0.0
940,0.0
943,0.0
946,16569.767630421164
949,17415.939366859275
952,6513.210567505801
955,15429.386744731417
9,675314011.3060052
45,58596598.456401038
207,263684693.05380506
969,26235965.020628
999,124269734.55483864
1075,104121689.44909051
1150,2348005.3443071299
1175,0.1885194173886452
1199,0.1885194173886452
1286,1155512189.6410015
1310,1148289634.571641
1335,0.0
1360,96057325.42693499
1389,0.0
1502,7222555.069360516
2,1, 1, 1, 0, 5, 0.00,60.00,Sunday
433,18.752561931003898
434,27.146397575762387
473,17.202248848713617
474,28.463164239448468
513,15.559450452398206
514,28.654775934833308
553,15.555050402576457
554,28.590515176384739
593,15.293452079394506
594,30.847556143045219
633,15.56921790301069
634,30.080252589771776
844,0.0
848,0.0
852,73307.20143722839
856,77239.41134010419
860,12230.818402503884
864,54175.59428606543
868,0.0
872,0.0
876,0.0
880,0.0
884,0.0
888,0.0
2,1, 1, 1, 0, 6, 0.00,60.00,Sunday
845,0.0
849,0.0
853,0.0
857,0.0
861,0.0
865,0.0
869,0.0
873,0.0
877,0.0
881,0.0
885,0.0
889,0.0
940,0.0
943,0.0
946,0.0
949,0.0
952,0.0
955,0.0
9,459092905.91825059
45,58596598.456401038
207,276226572.9070109
969,0.0
999,124269734.55483864
1075,0.0
1150,0.0
1175,0.0
1199,0.0
1286,0.0
1310,0.0
1335,0.0
1360,0.0
1389,0.0
1502,0.0
2,1, 1, 1, 0, 6, 0.00,60.00,Sunday
433,18.940833245145286
434,26.836052644738126
473,17.42774157149644
474,28.067733621298559
513,13.863115608099909
514,31.99851477931301
553,13.836028429380772
554,31.974056681932809
593,15.354380213139894
594,30.730011610950478
633,14.024969040379501
634,33.25347618462038
844,0.0
848,0.0
852,0.0
856,0.0
860,0.0
864,0.0
868,0.0
872,0.0
876,0.0
880,0.0
884,0.0
888,0.0
2,1, 1, 1, 0, 7, 0.00,60.00,Sunday
845,0.0
849,0.0
853,64187.993676330814
857,67646.04170235239
861,0.0
865,53367.64999285801
869,0.0
873,0.0
877,0.0
881,0.0
885,0.0
889,0.0
940,0.0
943,0.0
946,16110.209920775967
949,16947.46254660732
952,0.0
955,14957.543678194801
9,665132577.0883333
45,58596598.456401038
207,263684693.05380506
969,23050589.13630248
999,131118192.48345293
1075,90605824.5206428
1150,2129754.2184261979
1175,0.22256157173474007
1199,0.17566136158729468
1286,1054246071.2809476
1310,1020263442.3626077
1335,0.0
1360,95946925.21930288
1389,0.04690021014744537
1502,33982628.91833988
2,1, 1, 1, 0, 7, 0.00,60.00,Sunday
433,19.02407957902018
434,26.780315896888959
473,17.472076011202874
474,28.063903842746038
513,15.541170503240455
514,28.792881147472739
553,15.538985801228911
554,28.73445954657104
593,15.192793480357551
594,31.116972531273157
633,15.553187144854947
634,30.154573884369655
844,0.0
848,0.0
852,64187.993676330814
856,67646.04170235239
860,0.0
864,53367.64999285801
868,0.0
872,0.0
876,0.0
880,0.0
884,0.0
888,0.0
2,1, 1, 1, 0, 8, 0.00,60.00,Sunday
845,0.0
849,0.0
853,0.0
857,0.0
861,23999.117799126696
865,0.0
869,0.0
873,0.0
877,0.0
881,0.0
885,0.0
889,0.0
940,0.0
943,0.0
946,0.0
949,0.0
952,19148.02730648768
955,0.0
9,598341788.8896338
45,58596598.456401038
207,263684693.05380506
969,7963439.710813807
999,131118192.48345293
1075,40904159.93622447
1150,1148780.4445031933
1175,0.185405650906189
1199,0.13850544075874364
1286,156226922.30479316
1310,132043454.74972457
1335,0.0
1360,94925924.80443324
1389,0.04690021014744537
1502,24183467.555068576
2,1, 1, 1, 0, 8, 0.00,60.00,Sunday
433,18.97297939000787
434,26.91649364692659
473,17.35379548394346
474,28.308494988229364
513,13.13271039037728
514,33.65972365557779
553,13.024755235275676
554,33.824331815806747
593,15.594348024582328
594,30.333508463040098
633,13.899982964600337
634,33.598486883871739
844,0.0
848,0.0
852,0.0
856,0.0
860,23999.117799126696
864,0.0
868,0.0
872,0.0
876,0.0
880,0.0
884,0.0
888,0.0
2,1, 1, 1, 0, 9, 0.00,60.00,Sunday
845,0.0
849,0.0
853,89233.39689577694
857,96072.64636621498
861,0.0
865,54574.45371060805
869,0.0
873,0.0
877,0.0
881,0.0
885,0.0
889,0.0
940,0.0
943,0.0
946,15666.106952153226
949,16386.58015297207
952,0.0
955,15647.027504230744
9,533791449.2060594
45,58596598.456401038
207,263684693.05380506
969,23050589.13630248
999,0.0
1075,90042850.47317924
1150,2056022.3587852235
1175,0.21824655103335884
1199,0.17134634088591348
1286,1370982060.163055
1310,1338684991.1569296
1335,0.0
1360,96360695.72758645
1389,0.04690021014744537
1502,32297069.006125425
2,1, 1, 1, 0, 9, 0.00,60.00,Sunday
433,18.99761229043007
434,26.986569057805324
473,17.29940697652726
474,28.482804588370365
513,15.385837170590066
514,29.013727366803175
553,15.37688475139821
554,28.963274174826073
593,15.273697896944432
594,31.00338295190509
633,15.528532869953903
634,30.25121836019329
844,0.0
848,0.0
852,89233.39689577694
856,96072.64636621498
860,0.0
864,54574.45371060805
868,0.0
872,0.0
876,0.0
880,0.0
884,0.0
888,0.0
2,1, 1, 1, 0,10, 0.00,60.00,Sunday
845,0.0
849,0.0
853,0.0
857,0.0
861,0.0
865,0.0
869,0.0
873,0.0
877,0.0
881,0.0
885,0.0
889,0.0
940,0.0
943,0.0
946,0.0
949,0.0
952,0.0
955,0.0
9,322335754.55087706
45,58596598.456401038
207,263684693.05380506
969,0.0
999,0.0
1075,0.0
1150,0.0
1175,0.04690021014744538
1199,0.0
1286,24193808.90784732
1310,0.0
1335,0.0
1360,54463.040671006136
1389,0.04690021014744538
1502,24193808.90784732
2,1, 1, 1, 0,10, 0.00,60.00,Sunday
433,19.18829382504971
434,26.764343048442798
473,17.45161614306415
474,28.300566077986983
513,13.420344605819662
514,33.156209652627598
553,13.331276954731237
554,33.288339710831298
593,15.305603547175516
594,31.02505340543503
633,14.068997882893509
634,33.3583478930736
844,0.0
848,0.0
852,0.0
856,0.0
860,0.0
864,0.0
868,0.0
872,0.0
876,0.0
880,0.0
884,0.0
888,0.0
2,1, 1, 1, 0,11, 0.00,60.00,Sunday
845,0.0
849,0.0
853,82361.73075463576
857,88785.68115425625
861,0.0
865,49413.085851401614
869,0.0
873,0.0
877,0.0
881,0.0
885,0.0
889,0.0
940,0.0
943,0.0
946,16566.420112482836
949,17373.965352615272
952,0.0
955,15853.517457876877
9,537210939.0997889
45,58596598.456401038
207,263684693.05380506
969,23050589.136302476
999,0.0
1075,93482273.57563617
1150,2187373.939985255
1175,0.2621887514423927
1199,0.21528854129494733
1286,1228572771.4463788
1310,1204367420.9045737
1335,0.0
1360,96209410.93765889
1389,0.04690021014744537
1502,24205350.541804933
2,1, 1, 1, 0,11, 0.00,60.00,Sunday
433,19.24519852826611
434,26.684009606875898
473,17.41823768936374
474,28.35611360517244
513,15.546626218237808
514,28.811221407879829
553,15.542959895287624
554,28.763151880026887
593,15.23050525965307
594,31.15138098052245
633,15.578532994201325
634,30.211090393855718
844,0.0
848,0.0
852,82361.73075463576
856,88785.68115425625
860,0.0
864,49413.085851401614
868,0.0
872,0.0
876,0.0
880,0.0
884,0.0
888,0.0
2,1, 1, 1, 0,12, 0.00,60.00,Sunday
845,0.0
849,0.0
853,0.0
857,0.0
861,0.0
865,0.0
869,0.0
873,0.0
877,0.0
881,0.0
885,0.0
889,0.0
940,0.0
943,0.0
946,0.0
949,0.0
952,0.0
955,0.0
9,322335754.55087706
45,58596598.456401038
207,263684693.05380506
969,0.0
999,0.0
1075,0.0
1150,0.0
1175,0.07035031522116805
1199,0.0
1286,33119111.94981826
1310,0.0
1335,0.0
1360,54463.040671006136
1389,0.07035031522116805
1502,33119111.94981826
2,1, 1, 1, 0,12, 0.00,60.00,Sunday
433,19.315007192733277
434,26.60349333477335
473,17.379143818839546
474,28.453026447941978
513,12.898947321012832
514,34.50649461450527
553,12.73968242042674
554,34.83804479138982
593,15.146388641237655
594,31.350510364324987
633,14.089958354758024
634,33.32345938802166
844,0.0
848,0.0
852,0.0
856,0.0
860,0.0
864,0.0
868,0.0
872,0.0
876,0.0
880,0.0
884,0.0
888,0.0
2,1, 1, 1, 0,13, 0.00,60.00,Sunday
845,0.0
849,0.0
853,92041.68558332764
857,99826.61896626315
861,20351.49620348941
865,40091.37707385602
869,0.0
873,0.0
877,0.0
881,0.0
885,0.0
889,0.0
940,0.0
943,0.0
946,16150.999037801965
949,16848.546822254397
952,19166.645414470968
955,16437.86401816535
9,578114606.9630456
45,58596598.456401038
207,263684693.05380506
969,31014028.847116285
999,0.0
1075,125580393.57973051
1150,2840230.434507897
1175,0.28655422948383726
1199,0.2162039142626692
1286,1403112980.7315615
1310,1369924655.500059
1335,0.0
1360,96398662.59148485
1389,0.07035031522116807
1502,33188325.231502464
2,1, 1, 1, 0,13, 0.00,60.00,Sunday
433,19.5252688851578
434,26.30668812945891
473,17.53345850767095
474,28.2232218038931
513,15.451825642886377
514,29.461546320977257
553,15.439315329370308
554,29.482675931524743
593,15.595744515458606
594,30.504789710145155
633,15.619282775884943
634,30.216369763530787
844,0.0
848,0.0
852,92041.68558332764
856,99826.61896626315
860,20351.49620348941
864,40091.37707385602
868,0.0
872,0.0
876,0.0
880,0.0
884,0.0
888,0.0
2,1, 1, 1, 0,14, 0.00,60.00,Sunday
845,0.0
849,0.0
853,0.0
857,0.0
861,0.0
865,0.0
869,0.0
873,0.0
877,0.0
881,0.0
885,0.0
889,0.0
940,0.0
943,0.0
946,0.0
949,0.0
952,0.0
955,0.0
9,322335754.55087706
45,58596598.456401038
207,263684693.05380506
969,0.0
999,0.0
1075,0.0
1150,0.0
1175,0.10552547283175209
1199,0.0
1286,43226460.44709394
1310,0.0
1335,0.0
1360,54463.040671006136
1389,0.10552547283175209
1502,43226460.44709394
2,1, 1, 1, 0,14, 0.00,60.00,Sunday
433,19.599867522427127
434,26.256131462103587
473,17.57903725798338
474,28.210963335247614
513,13.303610768844897
514,34.21699145045985
553,13.17528091908347
554,34.529688034523498
593,15.546143259250407
594,30.684982967477258
633,14.273096059749025
634,33.06823544003371
844,0.0
848,0.0
852,0.0
856,0.0
860,0.0
864,0.0
868,0.0
872,0.0
876,0.0
880,0.0
884,0.0
888,0.0
2,1, 1, 1, 0,15, 0.00,60.00,Sunday
845,0.0
849,0.0
853,79204.60787187
857,85921.89759212341
861,0.0
865,43570.09339647607
869,0.0
873,0.0
877,0.0
881,0.0
885,0.0
889,0.0
940,0.0
943,0.0
946,16432.308158479715
949,17152.043885725136
952,0.0
955,16054.56780242095
9,537078081.3891319
45,58596598.456401038
207,263684693.05380506
969,23050589.136302476
999,0.0
1075,93363255.2986993
1150,2263996.1557158569
1175,0.2543151004869991
1199,0.1839647852658311
1286,1178538989.91173
1310,1145397115.851931
1335,0.0
1360,96118949.2882082
1389,0.07035031522116805
1502,33141874.059798916
2,1, 1, 1, 0,15, 0.00,60.00,Sunday
433,19.663104381645565
434,26.22151036904276
473,17.640962501983773
474,28.1712990739546
513,15.543509777455127
514,29.86493335145876
553,15.53375967484101
554,29.926374739217587
593,15.651668152186627
594,30.566442148879064
633,15.581285471785322
634,30.442677571888305
844,0.0
848,0.0
852,79204.60787187
856,85921.89759212341
860,0.0
864,43570.09339647607
868,0.0
872,0.0
876,0.0
880,0.0
884,0.0
888,0.0
2,1, 1, 1, 0,16, 0.00,60.00,Sunday
845,0.0
849,0.0
853,0.0
857,0.0
861,0.0
865,0.0
869,0.0
873,0.0
877,0.0
881,0.0
885,0.0
889,0.0
940,0.0
943,0.0
946,0.0
949,0.0
952,0.0
955,0.0
9,322335754.55087706
45,58596598.456401038
207,263684693.05380506
969,0.0
999,0.0
1075,0.0
1150,0.0
1175,0.04690021014744537
1199,0.0
1286,24171517.466561349
1310,0.0
1335,0.0
1360,54463.04067100613
1389,0.04690021014744537
1502,24171517.466561349
2,1, 1, 1, 0,16, 0.00,60.00,Sunday
433,19.57495952772951
434,26.5830354342375
473,17.547064621012443
474,28.57258943057299
513,13.175236684922645
514,35.80107271197659
553,13.037456928211327
554,36.23267630503778
593,15.55564146847044
594,31.049271308184829
633,14.226753693506808
634,33.540114465048869
844,0.0
848,0.0
852,0.0
856,0.0
860,0.0
864,0.0
868,0.0
872,0.0
876,0.0
880,0.0
884,0.0
888,0.0
2,1, 1, 1, 0,17, 0.00,60.00,Sunday
845,0.0
849,0.0
853,95530.41884288189
857,103511.95896195708
861,0.0
865,47852.51904215075
869,0.0
873,0.0
877,0.0
881,0.0
885,0.0
889,0.0
940,0.0
943,0.0
946,16252.648351247484
949,16965.802317104663
952,0.0
955,16214.8752324996
9,536874277.5730416
45,58596598.456401038
207,263684693.05380506
969,23050589.13630248
999,0.0
1075,92920833.0379315
1150,2243734.894227396
1175,0.22965624884948328
1199,0.18275603870203789
1286,1390987035.9405854
1310,1366806686.4137569
1335,0.0
1360,96377828.99437408
1389,0.04690021014744537
1502,24180349.526828637
2,1, 1, 1, 0,17, 0.00,60.00,Sunday
433,19.406324538013235
434,26.935086950702777
473,17.433296830834217
474,28.859329822933725
513,15.476793005243103
514,31.0438736973806
553,15.465633947287757
554,31.157999458847834
593,15.431877699069073
594,31.407230757923978
633,15.58549538157361
634,30.799918533980827
844,0.0
848,0.0
852,95530.41884288189
856,103511.95896195708
860,0.0
864,47852.51904215075
868,0.0
872,0.0
876,0.0
880,0.0
884,0.0
888,0.0
2,1, 1, 1, 0,18, 0.00,60.00,Sunday
845,0.0
849,0.0
853,0.0
857,0.0
861,0.0
865,0.0
869,0.0
873,0.0
877,0.0
881,0.0
885,0.0
889,0.0
940,0.0
943,0.0
946,0.0
949,0.0
952,0.0
955,0.0
9,465995826.8875358
45,58596598.456401038
207,276226572.9070109
969,0.0
999,131118192.48345293
1075,0.0
1150,0.0
1175,0.04690021014744537
1199,0.0
1286,26763320.74470317
1310,0.0
1335,0.0
1360,54463.040671006136
1389,0.04690021014744537
1502,26763320.74470317
2,1, 1, 1, 0,18, 0.00,60.00,Sunday
433,19.158130625794116
434,27.515617693306824
473,17.27942859044566
474,29.3171639590995
513,13.00154937199496
514,37.05690512958766
553,12.859888753545775
554,37.51012487917357
593,15.288747814031542
594,31.93046867832303
633,14.056411614789158
634,34.26357539240623
844,0.0
848,0.0
852,0.0
856,0.0
860,0.0
864,0.0
868,0.0
872,0.0
876,0.0
880,0.0
884,0.0
888,0.0
2,1, 1, 1, 0,19, 0.00,60.00,Sunday
845,0.0
849,0.0
853,122779.56195329885
857,132863.00363689994
861,22571.776261436888
865,56883.08066144546
869,0.0
873,0.0
877,0.0
881,0.0
885,0.0
889,0.0
940,0.0
943,0.0
946,15109.574592916879
949,15665.867328574228
952,13097.760101877622
955,15836.627709768865
9,692180189.6510877
45,58596598.456401038
207,263684693.05380506
969,28738760.35831234
999,131118192.48345293
1075,110429211.44421448
1150,2504589.0290575728
1175,0.18250605686320299
1199,0.18250605686320299
1286,1843187205.7973567
1310,1838237404.524274
1335,0.0
1360,97108144.82584422
1389,0.0
1502,4949801.2730825799
2,1, 1, 1, 0,19, 0.00,60.00,Sunday
433,18.817432109365439
434,28.080905439902197
473,16.987717174799074
474,29.851113651428645
513,15.31033385655117
514,31.74457347039761
553,15.285370946679267
554,31.832037770348817
593,15.44799630123979
594,31.647142552510439
633,15.540355763901048
634,31.169036989868247
844,0.0
848,0.0
852,122779.56195329885
856,132863.00363689994
860,22571.776261436888
864,56883.08066144546
868,0.0
872,0.0
876,0.0
880,0.0
884,0.0
888,0.0
2,1, 1, 1, 0,20, 0.00,60.00,Sunday
845,0.0
849,0.0
853,0.0
857,0.0
861,0.0
865,0.0
869,0.0
873,0.0
877,0.0
881,0.0
885,0.0
889,0.0
940,0.0
943,0.0
946,0.0
949,0.0
952,0.0
955,0.0
9,453399483.993659
45,58596598.456401038
207,263684693.05380506
969,0.0
999,131118192.48345293
1075,0.0
1150,0.0
1175,0.0
1199,0.0
1286,0.0
1310,0.0
1335,0.0
1360,0.0
1389,0.0
1502,0.0
2,1, 1, 1, 0,20, 0.00,60.00,Sunday
433,18.72008585820945
434,28.14315033181479
473,16.953771183032108
474,29.801569715306525
513,12.417276410421437
514,37.767720704985297
553,12.238063397943023
554,38.19724147701444
593,14.986447186985064
594,32.48146226495547
633,13.779643704866237
634,34.830917204081838
844,0.0
848,0.0
852,0.0
856,0.0
860,0.0
864,0.0
868,0.0
872,0.0
876,0.0
880,0.0
884,0.0
888,0.0
2,1, 1, 1, 0,21, 0.00,60.00,Sunday
845,0.0
849,0.0
853,116020.98203802677
857,125017.46507882684
861,30845.81932554651
865,57037.74158060703
869,0.0
873,0.0
877,0.1428957437146151
881,126.11324321464872
885,0.0
889,0.0
940,0.0
943,0.0
946,15494.056097819577
949,16249.539062568521
952,19097.073416281997
955,15979.427602457281
9,706699382.9767537
45,58596598.456401038
207,263684693.05380506
969,31014028.84711628
999,131118192.48345293
1075,122595777.78240092
1150,2714956.312937785
1175,0.19537233220798876
1199,0.19537233220798876
1286,1743391351.7690197
1310,1743391351.7690197
1335,0.0
1360,96975136.04063976
1389,0.0
1502,0.0
2,1, 1, 1, 0,21, 0.00,60.00,Sunday
433,18.691895128904979
434,28.11277557377373
473,16.9740574096261
474,29.679391342843599
513,15.357364958044565
514,30.90378895273479
553,15.340207628584329
554,30.89955560498658
593,15.595698068352516
594,31.157691394915135
633,15.54848873964084
634,30.98200820273212
844,0.0
848,0.0
852,116020.98203802677
856,125017.46507882684
860,30845.81932554651
864,57037.74158060703
868,0.0
872,0.0
876,0.1428957437146151
880,126.11324321464872
884,0.0
888,0.0
2,1, 1, 1, 0,22, 0.00,60.00,Sunday
845,0.0
849,0.0
853,0.0
857,0.0
861,0.0
865,0.0
869,0.0
873,0.0
877,0.0
881,0.0
885,0.0
889,0.0
940,0.0
943,0.0
946,0.0
949,0.0
952,0.0
955,0.0
9,453399483.993659
45,58596598.456401038
207,263684693.05380506
969,0.0
999,131118192.48345293
1075,0.0
1150,0.0
1175,0.0
1199,0.0
1286,0.0
1310,0.0
1335,0.0
1360,0.0
1389,0.0
1502,0.0
2,1, 1, 1, 0,22, 0.00,60.00,Sunday
433,18.62370630218489
434,28.12279038773058
473,16.90262056037209
474,29.690051586343093
513,12.47732817250223
514,36.67174930634183
553,12.309986948984504
554,36.981860579180608
593,15.046887498293576
594,32.1353034063295
633,13.72687874962538
634,34.725855876200657
844,0.0
848,0.0
852,0.0
856,0.0
860,0.0
864,0.0
868,0.0
872,0.0
876,0.0
880,0.0
884,0.0
888,0.0
2,1, 1, 1, 0,23, 0.00,60.00,Sunday
845,0.0
849,0.0
853,138010.19428670495
857,149434.50435849117
861,36172.557843385126
865,62430.685973138316
869,0.0
873,0.0
877,0.0
881,75.50270282749429
885,0.0
889,0.0
940,0.0
943,0.0
946,15104.757412625515
949,15747.914060685182
952,19138.65062050039
955,15882.448407442156
9,705625655.9051752
45,58596598.456401038
207,263684693.05380506
969,31014028.84711628
999,131118192.48345293
1075,121050540.4288961
1150,2655652.054403355
1175,0.2264202920451332
1199,0.2264202920451332
1286,2086479058.9198337
1310,2079256585.5623165
1335,0.0
1360,97505950.5811007
1389,0.0
1502,7222473.35751736
2,1, 1, 1, 0,23, 0.00,60.00,Sunday
433,18.466758823370829
434,28.208078469235045
473,16.714241721375353
474,29.817439445477466
513,15.28656242055915
514,29.72426579770417
553,15.261636385933129
554,29.646156511604909
593,15.595752568088802
594,30.778083521470625
633,15.536729989476007
634,30.63713546957517
844,0.0
848,0.0
852,138010.19428670495
856,149434.50435849117
860,36172.557843385126
864,62430.685973138316
868,0.0
872,0.0
876,0.0
880,75.50270282749429
884,0.0
888,0.0
2,1, 1, 1, 0,24, 0.00,60.00,Sunday
845,0.0
849,0.0
853,0.0
857,0.0
861,0.0
865,0.0
869,0.0
873,0.0
877,0.0
881,0.0
885,0.0
889,0.0
940,0.0
943,0.0
946,0.0
949,0.0
952,0.0
955,0.0
9,453399483.993659
45,58596598.456401038
207,263684693.05380506
969,0.0
999,131118192.48345293
1075,0.0
1150,0.0
1175,0.0
1199,0.0
1286,0.0
1310,0.0
1335,0.0
1360,0.0
1389,0.0
1502,0.0
2,1, 1, 1, 0,24, 0.00,60.00,Sunday
433,18.432958414902275
434,28.167136561144493
473,16.69536232300591
474,29.743523482057844
513,12.10331039210612
514,36.30208577016522
553,11.906051151745175
554,36.63447539871662
593,14.889225641492113
594,32.0911161695926
633,13.600460234081151
634,34.62439372647417
844,0.0
848,0.0
852,0.0
856,0.0
860,0.0
864,0.0
868,0.0
872,0.0
876,0.0
880,0.0
884,0.0
888,0.0
2,2, 1, 2, 0, 1, 0.00,60.00,Monday
845,0.0
849,0.0
853,121548.5982263252
857,130992.26641492995
861,31903.177897166704
865,59247.757261152336
869,0.0
873,0.0
877,188.09046535813898
881,323.3031128739932
885,0.0
889,0.0
940,0.0
943,0.0
946,15338.340400250607
949,16058.0334899129
952,19104.083736133187
955,15857.293690560344
9,787027793.5630151
45,58596598.456401038
207,351579590.7384068
969,31014028.847116285
999,124269734.55483864
1075,121850264.0474351
1150,2627148.1432026375
1175,0.223426549468976
1199,0.223426549468976
1286,1800917920.9476479
1310,1800917920.9476479
1335,0.0
1360,97090428.77561456
1389,0.0
1502,0.0
2,2, 1, 2, 0, 1, 0.00,60.00,Monday
433,18.628172712480536
434,27.670253715271615
473,16.888374430895735
474,29.19418074351736
513,15.297113832541396
514,28.859474590219656
553,15.27555938413956
554,28.749231091898474
593,15.600000733570575
594,30.44448337624472
633,15.5239229028791
634,30.34681110993562
844,0.0
848,0.0
852,121548.5982263252
856,130992.26641492995
860,31903.177897166704
864,59247.757261152336
868,0.0
872,0.0
876,188.09046535813898
880,323.3031128739932
884,0.0
888,0.0
2,2, 1, 2, 0, 2, 0.00,60.00,Monday
845,0.0
849,0.0
853,0.0
857,0.0
861,0.0
865,0.0
869,0.0
873,0.0
877,0.0
881,0.0
885,0.0
889,0.0
940,0.0
943,0.0
946,0.0
949,0.0
952,0.0
955,0.0
9,534445923.74964657
45,58596598.456401038
207,351579590.7384068
969,0.0
999,124269734.55483864
1075,0.0
1150,0.0
1175,0.0
1199,0.0
1286,0.0
1310,0.0
1335,0.0
1360,0.0
1389,0.0
1502,0.0
2,2, 1, 2, 0, 2, 0.00,60.00,Monday
433,18.50584704629179
434,27.532474933319074
473,16.643908233349714
474,29.235965630479588
513,11.667905089512479
514,35.48450352714261
553,11.427232580625225
554,35.88019543086873
593,14.788992628035152
594,31.596601223651694
633,13.547611491645109
634,33.998292399670507
844,0.0
848,0.0
852,0.0
856,0.0
860,0.0
864,0.0
868,0.0
872,0.0
876,0.0
880,0.0
884,0.0
888,0.0
2,2, 1, 2, 0, 3, 0.00,60.00,Monday
845,0.0
849,0.0
853,148998.00298590409
857,160666.26615199395
861,40032.41711858915
865,68113.59963980223
869,0.0
873,0.0
877,710.7946046821313
881,1028.6748286216353
885,0.0
889,0.0
940,0.0
943,0.0
946,13555.44669682924
949,14112.514601239349
952,19176.547426436835
955,15424.897321909137
9,780800768.3075506
45,58596598.456401038
207,351579590.7384068
969,31014028.847116285
999,124269734.55483864
1075,114893757.1485642
1150,2510749.454457662
1175,0.19762191123220516
1199,0.19762191123220516
1286,2250131278.533431
1310,2250131278.533431
1335,0.0
1360,97936309.10776586
1389,0.0
1502,0.0
2,2, 1, 2, 0, 3, 0.00,60.00,Monday
433,18.521528340600356
434,27.145779462067936
473,16.63816503562377
474,28.839899038696588
513,14.955866793164619
514,28.265655961435838
553,14.904622761905781
554,28.271428965822083
593,15.62228756061864
594,29.5457738610126
633,15.45058576809256
634,29.658276286166637
844,0.0
848,0.0