Program Version,EnergyPlus, Version 9.4.0-998c4b761e, YMD=2021.03.24 06:33
1,5,Environment Title[],Latitude[deg],Longitude[deg],Time Zone[],Elevation[m]
2,8,Day of Simulation[],Month[],Day of Month[],DST Indicator[1=yes 0=no],Hour[],StartMinute[],EndMinute[],DayType
3,5,Cumulative Day of Simulation[],Month[],Day of Month[],DST Indicator[1=yes 0=no],DayType  ! When Daily Report Variables Requested
4,2,Cumulative Days of Simulation[],Month[]  ! When Monthly Report Variables Requested
5,1,Cumulative Days of Simulation[] ! When Run Period Report Variables Requested
6,1,Calendar Year of Simulation[] ! When Annual Report Variables Requested
9,1,Electricity:Facility [J] !TimeStep
1381,1,NaturalGas:Facility [J] !TimeStep
End of Data Dictionary
1,BUFFALO NIAGARA INTL AP ANN CLG .4% CONDNS DB=>MWB 1 HVAC Sizing Pass 1,  42.93, -78.73,  -5.00, 215.00
2,1, 7,21, 0, 1, 0.00,60.00,SummerDesignDay
9,16273148844.076592
1381,11483000019.205628
2,1, 7,21, 0, 2, 0.00,60.00,SummerDesignDay
9,15023432975.61801
1381,6642653747.883104
2,1, 7,21, 0, 3, 0.00,60.00,SummerDesignDay
9,15036710692.458434
1381,6457276570.738279
2,1, 7,21, 0, 4, 0.00,60.00,SummerDesignDay
9,15148816721.351248
1381,6457276570.738279
2,1, 7,21, 0, 5, 0.00,60.00,SummerDesignDay
9,15246236536.86228
1381,6457276570.738279
2,1, 7,21, 0, 6, 0.00,60.00,SummerDesignDay
9,15894794895.946804
1381,6457276570.738279
2,1, 7,21, 0, 7, 0.00,60.00,SummerDesignDay
9,18215618682.484979
1381,10415471461.684193
2,1, 7,21, 0, 8, 0.00,60.00,SummerDesignDay
9,19827863540.46586
1381,13050975783.876637
2,1, 7,21, 0, 9, 0.00,60.00,SummerDesignDay
9,19462053194.410829
1381,12719192100.710236
2,1, 7,21, 0,10, 0.00,60.00,SummerDesignDay
9,19399275414.24694
1381,12481369122.736618
2,1, 7,21, 0,11, 0.00,60.00,SummerDesignDay
9,19351165690.83137
1381,12096780625.057137
2,1, 7,21, 0,12, 0.00,60.00,SummerDesignDay
9,19490701037.63032
1381,12423754066.690752
2,1, 7,21, 0,13, 0.00,60.00,SummerDesignDay
9,19437662010.19109
1381,12376788637.71586
2,1, 7,21, 0,14, 0.00,60.00,SummerDesignDay
9,19358409246.66663
1381,12051669811.074963
2,1, 7,21, 0,15, 0.00,60.00,SummerDesignDay
9,19245841545.25548
1381,12031163769.092503
2,1, 7,21, 0,16, 0.00,60.00,SummerDesignDay
9,19152483550.588979
1381,12030700383.91528
2,1, 7,21, 0,17, 0.00,60.00,SummerDesignDay
9,19042876995.65523
1381,12030237402.897154
2,1, 7,21, 0,18, 0.00,60.00,SummerDesignDay
9,19045295191.653955
1381,12126491673.28286
2,1, 7,21, 0,19, 0.00,60.00,SummerDesignDay
9,19065214879.69946
1381,12792918718.142834
2,1, 7,21, 0,20, 0.00,60.00,SummerDesignDay
9,18962735281.583879
1381,12826828033.440632
2,1, 7,21, 0,21, 0.00,60.00,SummerDesignDay
9,19266499100.19722
1381,12757464392.460434
2,1, 7,21, 0,22, 0.00,60.00,SummerDesignDay
9,19213076318.02558
1381,12793812384.338849
2,1, 7,21, 0,23, 0.00,60.00,SummerDesignDay
9,18345995584.825178
1381,12424571317.271428
2,1, 7,21, 0,24, 0.00,60.00,SummerDesignDay
9,17895061428.504514
1381,11739042735.224228
1,BUFFALO NIAGARA INTL AP ANN CLG .4% CONDNS WB=>MDB 1 HVAC Sizing Pass 1,  42.93, -78.73,  -5.00, 215.00
2,1, 7,21, 0, 1, 0.00,60.00,SummerDesignDay
9,16317616759.807318
1381,11483000019.205628
2,1, 7,21, 0, 2, 0.00,60.00,SummerDesignDay
9,15021454869.144316
1381,6642653747.883104
2,1, 7,21, 0, 3, 0.00,60.00,SummerDesignDay
9,15006560799.690865
1381,6457276570.738279
2,1, 7,21, 0, 4, 0.00,60.00,SummerDesignDay
9,15061136281.220726
1381,6457276570.738279
2,1, 7,21, 0, 5, 0.00,60.00,SummerDesignDay
9,15124287970.079642
1381,6457276570.738279
2,1, 7,21, 0, 6, 0.00,60.00,SummerDesignDay
9,15731692207.087145
1381,6457276570.738279
2,1, 7,21, 0, 7, 0.00,60.00,SummerDesignDay
9,18143292133.961999
1381,10415471461.684184
2,1, 7,21, 0, 8, 0.00,60.00,SummerDesignDay
9,20215000830.657598
1381,13050975783.874669
2,1, 7,21, 0, 9, 0.00,60.00,SummerDesignDay
9,20437163456.26592
1381,12719192100.711972
2,1, 7,21, 0,10, 0.00,60.00,SummerDesignDay
9,20504909139.02121
1381,12481369122.736624
2,1, 7,21, 0,11, 0.00,60.00,SummerDesignDay
9,20652214541.589738
1381,12096780625.055283
2,1, 7,21, 0,12, 0.00,60.00,SummerDesignDay
9,20882775093.267797
1381,12423754066.690749
2,1, 7,21, 0,13, 0.00,60.00,SummerDesignDay
9,20343378534.741949
1381,12376788637.715859
2,1, 7,21, 0,14, 0.00,60.00,SummerDesignDay
9,20302860870.16705
1381,12051669811.076687
2,1, 7,21, 0,15, 0.00,60.00,SummerDesignDay
9,20191005824.43434
1381,12031163769.092473
2,1, 7,21, 0,16, 0.00,60.00,SummerDesignDay
9,20622147827.11397
1381,12030700383.915249
2,1, 7,21, 0,17, 0.00,60.00,SummerDesignDay
9,20412368888.324769
1381,12030237402.89712
2,1, 7,21, 0,18, 0.00,60.00,SummerDesignDay
9,20311245951.36204
1381,12126491673.281319
2,1, 7,21, 0,19, 0.00,60.00,SummerDesignDay
9,20171496271.15667
1381,12792918718.14283
2,1, 7,21, 0,20, 0.00,60.00,SummerDesignDay
9,19939289341.89203
1381,12826828033.440629
2,1, 7,21, 0,21, 0.00,60.00,SummerDesignDay
9,20144246592.31464
1381,12757464392.460433
2,1, 7,21, 0,22, 0.00,60.00,SummerDesignDay
9,19738231180.003999
1381,12793812384.338849
2,1, 7,21, 0,23, 0.00,60.00,SummerDesignDay
9,18671109382.423036
1381,12424571317.271431
2,1, 7,21, 0,24, 0.00,60.00,SummerDesignDay
9,18058079764.416898
1381,11739042735.225432
1,BUFFALO NIAGARA INTL AP ANN HTG 99.6% CONDNS DB 1 HVAC Sizing Pass 1,  42.93, -78.73,  -5.00, 215.00
2,1, 1,21, 0, 1, 0.00,60.00,WinterDesignDay
9,3488995071.469197
1381,22595110812.00352
2,1, 1,21, 0, 2, 0.00,60.00,WinterDesignDay
9,3103443166.199269
1381,16409177530.041043
2,1, 1,21, 0, 3, 0.00,60.00,WinterDesignDay
9,3103727104.873435
1381,16313914598.383458
2,1, 1,21, 0, 4, 0.00,60.00,WinterDesignDay
9,3103629104.856409
1381,16343215009.835124
2,1, 1,21, 0, 5, 0.00,60.00,WinterDesignDay
9,3103769602.6768839
1381,16374431308.635687
2,1, 1,21, 0, 6, 0.00,60.00,WinterDesignDay
9,3133460159.5973646
1381,17033198567.29849
2,1, 1,21, 0, 7, 0.00,60.00,WinterDesignDay
9,3420967236.3087446
1381,23784919357.2847
2,1, 1,21, 0, 8, 0.00,60.00,WinterDesignDay
9,3429907000.7910568
1381,23946801731.4023
2,1, 1,21, 0, 9, 0.00,60.00,WinterDesignDay
9,2760950662.8848807
1381,23877576578.04216
2,1, 1,21, 0,10, 0.00,60.00,WinterDesignDay
9,3744381877.418603
1381,25231297665.24601
2,1, 1,21, 0,11, 0.00,60.00,WinterDesignDay
9,3626835981.7716038
1381,25007791614.451189
2,1, 1,21, 0,12, 0.00,60.00,WinterDesignDay
9,3722319471.695888
1381,25221161372.273317
2,1, 1,21, 0,13, 0.00,60.00,WinterDesignDay
9,3708125595.803828
1381,25194722814.514238
2,1, 1,21, 0,14, 0.00,60.00,WinterDesignDay
9,3620766772.9875085
1381,24942540005.743589
2,1, 1,21, 0,15, 0.00,60.00,WinterDesignDay
9,3521671541.197471
1381,24674328130.814458
2,1, 1,21, 0,16, 0.00,60.00,WinterDesignDay
9,3517247506.427124
1381,24664550941.989019
2,1, 1,21, 0,17, 0.00,60.00,WinterDesignDay
9,3423355164.6078236
1381,24628198684.0256
2,1, 1,21, 0,18, 0.00,60.00,WinterDesignDay
9,4182311603.8530366
1381,24636033328.857416
2,1, 1,21, 0,19, 0.00,60.00,WinterDesignDay
9,4482944887.471591
1381,25108868371.851198
2,1, 1,21, 0,20, 0.00,60.00,WinterDesignDay
9,4509411042.321464
1381,25113115080.387109
2,1, 1,21, 0,21, 0.00,60.00,WinterDesignDay
9,4387159075.61389
1381,25096433581.659074
2,1, 1,21, 0,22, 0.00,60.00,WinterDesignDay
9,4493333008.340891
1381,25093816758.999715
2,1, 1,21, 0,23, 0.00,60.00,WinterDesignDay
9,4112875420.346164
1381,23242554481.995985
2,1, 1,21, 0,24, 0.00,60.00,WinterDesignDay
9,3922127109.8311226
1381,23029016738.723787
1,BUFFALO NIAGARA INTL AP ANN CLG .4% CONDNS DB=>MWB 1,  42.93, -78.73,  -5.00, 215.00
2,1, 7,21, 0, 1, 0.00,60.00,SummerDesignDay
9,16330518886.153218
1381,11483000019.205628
2,1, 7,21, 0, 2, 0.00,60.00,SummerDesignDay
9,15084291072.5745
1381,6642653747.883104
2,1, 7,21, 0, 3, 0.00,60.00,SummerDesignDay
9,15097564736.330494
1381,6457276570.738279
2,1, 7,21, 0, 4, 0.00,60.00,SummerDesignDay
9,15209114720.987298
1381,6457276570.738279
2,1, 7,21, 0, 5, 0.00,60.00,SummerDesignDay
9,15306008366.20414
1381,6457276570.738279
2,1, 7,21, 0, 6, 0.00,60.00,SummerDesignDay
9,15950544215.14851
1381,6457276570.738279
2,1, 7,21, 0, 7, 0.00,60.00,SummerDesignDay
9,18238328684.95508
1381,10415471461.684187
2,1, 7,21, 0, 8, 0.00,60.00,SummerDesignDay
9,19835386348.29554
1381,13050975783.874566
2,1, 7,21, 0, 9, 0.00,60.00,SummerDesignDay
9,19479987576.598245
1381,12719192100.712046
2,1, 7,21, 0,10, 0.00,60.00,SummerDesignDay
9,19417513149.856317
1381,12481369122.736624
2,1, 7,21, 0,11, 0.00,60.00,SummerDesignDay
9,19370888120.46149
1381,12096780625.055203
2,1, 7,21, 0,12, 0.00,60.00,SummerDesignDay
9,19511933743.652948
1381,12423754066.690749
2,1, 7,21, 0,13, 0.00,60.00,SummerDesignDay
9,19459883493.39043
1381,12376788637.715859
2,1, 7,21, 0,14, 0.00,60.00,SummerDesignDay
9,19380411263.313119
1381,12051669811.076758
2,1, 7,21, 0,15, 0.00,60.00,SummerDesignDay
9,19268092997.498064
1381,12031163769.092478
2,1, 7,21, 0,16, 0.00,60.00,SummerDesignDay
9,19175545526.53149
1381,12030700383.915247
2,1, 7,21, 0,17, 0.00,60.00,SummerDesignDay
9,19067416416.21401
1381,12030237402.89714
2,1, 7,21, 0,18, 0.00,60.00,SummerDesignDay
9,19071704501.85131
1381,12126491673.281222
2,1, 7,21, 0,19, 0.00,60.00,SummerDesignDay
9,19095045333.665826
1381,12792918718.14283
2,1, 7,21, 0,20, 0.00,60.00,SummerDesignDay
9,18996443819.470834
1381,12826828033.440629
2,1, 7,21, 0,21, 0.00,60.00,SummerDesignDay
9,19302439452.71296
1381,12757464392.46043
2,1, 7,21, 0,22, 0.00,60.00,SummerDesignDay
9,19250568323.59519
1381,12793812384.338847
2,1, 7,21, 0,23, 0.00,60.00,SummerDesignDay
9,18392729836.516786
1381,12424571317.271428
2,1, 7,21, 0,24, 0.00,60.00,SummerDesignDay
9,17942378356.74813
1381,11739042735.225535
1,BUFFALO NIAGARA INTL AP ANN CLG .4% CONDNS WB=>MDB 1,  42.93, -78.73,  -5.00, 215.00
2,1, 7,21, 0, 1, 0.00,60.00,SummerDesignDay
9,16374429556.188172
1381,11483000019.205628
2,1, 7,21, 0, 2, 0.00,60.00,SummerDesignDay
9,15082261322.27008
1381,6642653747.883104
2,1, 7,21, 0, 3, 0.00,60.00,SummerDesignDay
9,15067682615.822384
1381,6457276570.738279
2,1, 7,21, 0, 4, 0.00,60.00,SummerDesignDay
9,15122095179.305878
1381,6457276570.738279
2,1, 7,21, 0, 5, 0.00,60.00,SummerDesignDay
9,15184963931.710886
1381,6457276570.738279
2,1, 7,21, 0, 6, 0.00,60.00,SummerDesignDay
9,15785764622.584496
1381,6457276570.738279
2,1, 7,21, 0, 7, 0.00,60.00,SummerDesignDay
9,18161760555.63714
1381,10415471461.909064
2,1, 7,21, 0, 8, 0.00,60.00,SummerDesignDay
9,20214906401.664445
1381,13050975783.6979
2,1, 7,21, 0, 9, 0.00,60.00,SummerDesignDay
9,20442873115.834814
1381,12719192101.207184
2,1, 7,21, 0,10, 0.00,60.00,SummerDesignDay
9,20510061290.4783
1381,12481369122.734726
2,1, 7,21, 0,11, 0.00,60.00,SummerDesignDay
9,20646215241.26224
1381,12096780624.529349
2,1, 7,21, 0,12, 0.00,60.00,SummerDesignDay
9,20876667857.265325
1381,12423754066.689682
2,1, 7,21, 0,13, 0.00,60.00,SummerDesignDay
9,20362172916.75031
1381,12376788637.71474
2,1, 7,21, 0,14, 0.00,60.00,SummerDesignDay
9,20321208692.127767
1381,12051669811.566674
2,1, 7,21, 0,15, 0.00,60.00,SummerDesignDay
9,20208545851.101636
1381,12031163769.08374
2,1, 7,21, 0,16, 0.00,60.00,SummerDesignDay
9,20618323141.35585
1381,12030700383.906624
2,1, 7,21, 0,17, 0.00,60.00,SummerDesignDay
9,20410218006.441827
1381,12030237402.888627
2,1, 7,21, 0,18, 0.00,60.00,SummerDesignDay
9,20319717471.11743
1381,12126491672.84034
2,1, 7,21, 0,19, 0.00,60.00,SummerDesignDay
9,20188611594.978776
1381,12792918718.142125
2,1, 7,21, 0,20, 0.00,60.00,SummerDesignDay
9,19962154560.30243
1381,12826828033.439965
2,1, 7,21, 0,21, 0.00,60.00,SummerDesignDay
9,20174663364.04725
1381,12757464392.459675
2,1, 7,21, 0,22, 0.00,60.00,SummerDesignDay
9,19771854246.16738
1381,12793812384.338189
2,1, 7,21, 0,23, 0.00,60.00,SummerDesignDay
9,18712556284.7362
1381,12424571317.271508
2,1, 7,21, 0,24, 0.00,60.00,SummerDesignDay
9,18107143236.417146
1381,11739042736.36887
1,BUFFALO NIAGARA INTL AP ANN HTG 99.6% CONDNS DB 1,  42.93, -78.73,  -5.00, 215.00
2,1, 1,21, 0, 1, 0.00,60.00,WinterDesignDay
9,3488991386.0067179
1381,22595110812.00352
2,1, 1,21, 0, 2, 0.00,60.00,WinterDesignDay
9,3103443162.423828
1381,16409177530.041043
2,1, 1,21, 0, 3, 0.00,60.00,WinterDesignDay
9,3103727097.387365
1381,16313914598.383458
2,1, 1,21, 0, 4, 0.00,60.00,WinterDesignDay
9,3103629101.014773
1381,16343215009.835124
2,1, 1,21, 0, 5, 0.00,60.00,WinterDesignDay
9,3103769598.868072
1381,16374431308.635687
2,1, 1,21, 0, 6, 0.00,60.00,WinterDesignDay
9,3133460155.8748066
1381,17033198567.29849
2,1, 1,21, 0, 7, 0.00,60.00,WinterDesignDay
9,3420967232.591294
1381,23784919357.255868
2,1, 1,21, 0, 8, 0.00,60.00,WinterDesignDay
9,3429906993.35795
1381,23946801731.402345
2,1, 1,21, 0, 9, 0.00,60.00,WinterDesignDay
9,2760950659.155961
1381,23877576578.042417
2,1, 1,21, 0,10, 0.00,60.00,WinterDesignDay
9,3743866902.1285197
1381,25231297665.2695
2,1, 1,21, 0,11, 0.00,60.00,WinterDesignDay
9,3627260647.690095
1381,25007791614.451189
2,1, 1,21, 0,12, 0.00,60.00,WinterDesignDay
9,3722344787.9272177
1381,25221161372.273317
2,1, 1,21, 0,13, 0.00,60.00,WinterDesignDay
9,3708336061.630094
1381,25194722814.514238
2,1, 1,21, 0,14, 0.00,60.00,WinterDesignDay
9,3620607231.7538077
1381,24942540005.743589
2,1, 1,21, 0,15, 0.00,60.00,WinterDesignDay
9,3521584909.458056
1381,24674328130.814458
2,1, 1,21, 0,16, 0.00,60.00,WinterDesignDay
9,3517301932.4487125
1381,24664550941.989
2,1, 1,21, 0,17, 0.00,60.00,WinterDesignDay
9,3423350781.674038
1381,24628198684.025579
2,1, 1,21, 0,18, 0.00,60.00,WinterDesignDay
9,4182293222.915099
1381,24636033328.857397
2,1, 1,21, 0,19, 0.00,60.00,WinterDesignDay
9,4482941243.178265
1381,25108868371.851198
2,1, 1,21, 0,20, 0.00,60.00,WinterDesignDay
9,4508900296.943386
1381,25113115080.387109
2,1, 1,21, 0,21, 0.00,60.00,WinterDesignDay
9,4387658962.770197
1381,25096433581.659074
2,1, 1,21, 0,22, 0.00,60.00,WinterDesignDay
9,4493388467.31602
1381,25093816758.999715
2,1, 1,21, 0,23, 0.00,60.00,WinterDesignDay
9,4113243536.964394
1381,23242554481.99637
2,1, 1,21, 0,24, 0.00,60.00,WinterDesignDay
9,3921831094.592863
1381,23029016738.72338
End of Data
 Number of Records Written=         288
