Program Version,EnergyPlus, Version 9.4.0-998c4b761e, YMD=2021.04.05 22:24
1,5,Environment Title[],Latitude[deg],Longitude[deg],Time Zone[],Elevation[m]
2,8,Day of Simulation[],Month[],Day of Month[],DST Indicator[1=yes 0=no],Hour[],StartMinute[],EndMinute[],DayType
3,5,Cumulative Day of Simulation[],Month[],Day of Month[],DST Indicator[1=yes 0=no],DayType  ! When Daily Meters Requested
4,2,Cumulative Days of Simulation[],Month[]  ! When Monthly Meters Requested
5,1,Cumulative Days of Simulation[] ! When Run Period Meters Requested
6,1,Calendar Year of Simulation[] ! When Annual Meters Requested
942,1,Heating:Electricity [J] !TimeStep
917,1,Heating:NaturalGas [J] !TimeStep
766,1,Heating:DistrictHeating [J] !TimeStep
982,1,Cooling:Electricity [J] !TimeStep
815,1,Cooling:DistrictCooling [J] !TimeStep
79,1,InteriorLights:Electricity [J] !TimeStep
24,1,ExteriorLights:Electricity [J] !TimeStep
116,1,InteriorEquipment:Electricity [J] !TimeStep
347,1,InteriorEquipment:NaturalGas [J] !TimeStep
852,1,Fans:Electricity [J] !TimeStep
1167,1,Pumps:Electricity [J] !TimeStep
1535,1,WaterSystems:Electricity [J] !TimeStep
1509,1,WaterSystems:NaturalGas [J] !TimeStep
1216,1,WaterSystems:Water [m3] !TimeStep
12,1,Electricity:Facility [J] !TimeStep
311,1,NaturalGas:Facility [J] !TimeStep
791,1,DistrictCooling:Facility [J] !TimeStep
742,1,DistrictHeating:Facility [J] !TimeStep
1192,1,Water:Facility [m3] !TimeStep
313,7,NaturalGas:Facility [J] !Daily [Value,Min,Hour,Minute,Max,Hour,Minute]
14,7,Electricity:Facility [J] !Daily [Value,Min,Hour,Minute,Max,Hour,Minute]
End of Data Dictionary
1,RUN PERIOD 1,  42.93, -78.73,  -5.00, 215.00
2,1, 1, 1, 0, 1, 0.00,60.00,Sunday
12,2623979.8030244505
24,51822.00938382133
79,190746.565400732
116,1949314.4975623072
311,16903002.207071149
347,5737993.663564081
742,358.83414254421936
766,358.83414254421936
791,0.0
815,0.0
852,252096.73067758964
917,11165008.543507068
942,0.0
982,180000.0
1167,0.0
1192,0.0005402719987828282
1216,0.0005402719987828282
1509,0.0
1535,0.0
2,1, 1, 1, 0, 2, 0.00,60.00,Sunday
12,2463713.451108125
24,47928.40581652169
79,148329.87632914066
116,1740410.0904043059
311,21061460.319254497
347,4128325.4741154115
742,448.4291919474345
766,448.4291919474345
791,0.0
815,0.0
852,347045.0785581571
917,15370136.91795709
942,0.0
982,180000.0
1167,0.0
1192,0.0018447864236367644
1216,0.0018447864236367644
1509,1562997.927181991
1535,0.0
2,1, 1, 1, 0, 3, 0.00,60.00,Sunday
12,3430439.428237321
24,47928.40581652169
79,127250.06721477406
116,2712610.001002458
311,19341517.72875161
347,1769554.4103538907
742,85.62765727692748
766,85.62765727692748
791,0.0
815,0.0
852,362650.9542035671
917,16061299.133514537
942,0.0
982,180000.0
1167,0.0
1192,0.004565427061596372
1216,0.004565427061596372
1509,1510664.184883184
1535,0.0
2,1, 1, 1, 0, 4, 0.00,60.00,Sunday
12,2076388.388130636
24,46630.53796075515
79,127250.06721477406
116,1361836.2525410648
311,16044894.32111288
347,0.0
742,139.66065533786606
766,139.66065533786606
791,0.0
815,0.0
852,360671.5304140419
917,15973633.246448614
942,0.0
982,180000.0
1167,0.0
1192,0.0
1216,0.0
1509,71261.07466426667
1535,0.0
2,1, 1, 1, 0, 5, 0.00,60.00,Sunday
12,1985093.5474734046
24,42736.93439345551
79,127250.06721477406
116,1270462.2922379042
311,16149579.552842463
347,0.0
742,0.0
766,0.0
791,0.0
815,0.0
852,364644.2536272707
917,16149579.552842463
942,0.0
982,180000.0
1167,0.0
1192,0.0
1216,0.0
1509,0.0
1535,0.0
2,1, 1, 1, 0, 6, 0.00,60.00,Sunday
12,1996376.748375722
24,46630.53796075515
79,127250.06721477406
116,1277967.5611101087
311,16144456.623649944
347,0.0
742,3.2741809263825414e-9
766,3.2741809263825414e-9
791,0.0
815,0.0
852,364528.5820900842
917,16144456.623649944
942,0.0
982,180000.0
1167,0.0
1192,0.0
1216,0.0
1509,0.0
1535,0.0
2,1, 1, 1, 0, 7, 0.00,60.00,Sunday
12,2038866.8271079569
24,55715.61295112095
79,127250.06721477406
116,1309961.1897993396
311,17780373.161789169
347,0.0
742,3.274180926382541e-9
766,3.274180926382541e-9
791,0.0
815,0.0
852,365939.9571427224
917,16206964.433562605
942,0.0
982,180000.0
1167,0.0
1192,0.004191158978695603
1216,0.004191158978695603
1509,1573408.728226562
1535,0.0
2,1, 1, 1, 0, 8, 0.00,60.00,Sunday
12,2154514.1249741634
24,60907.08437418714
79,127250.06721477406
116,1472893.7706343507
311,15432279.67266132
347,0.0
742,0.0
766,0.0
791,0.0
815,0.0
852,313463.2027508513
917,13882843.015779986
942,0.0
982,180000.0
1167,0.0
1192,0.0
1216,0.0
1509,1549436.6568813343
1535,0.0
2,1, 1, 1, 0, 9, 0.00,60.00,Sunday
12,2252204.378967528
24,44034.80224922205
79,127250.06721477406
116,1438495.9603487445
311,20480086.604673409
347,0.0
742,13.833005170818069
766,13.833005170818069
791,0.0
815,0.0
852,462423.5491547875
917,20480086.604673409
942,0.0
982,180000.0
1167,0.0
1192,0.0
1216,0.0
1509,0.0
1535,0.0
2,1, 1, 1, 0,10, 0.00,60.00,Sunday
12,3441666.0635274646
24,29850.96068263053
79,881752.9910033839
116,1973533.8515140028
311,16675905.44363025
347,0.0
742,0.0
766,0.0
791,0.0
815,0.0
852,376528.26032744758
917,16675905.44363025
942,0.0
982,180000.0
1167,0.0
1192,0.0
1216,0.0
1509,0.0
1535,0.0
2,1, 1, 1, 0,11, 0.00,60.00,Sunday
12,3424772.3180147276
24,31148.828538397072
79,493576.01828760848
116,2380367.3345595265
311,16594721.786616892
347,0.0
742,0.0
766,0.0
791,0.0
815,0.0
852,339680.1366291955
917,15043954.030387417
942,0.0
982,180000.0
1167,0.0
1192,0.00018111004739072164
1216,0.00018111004739072164
1509,1550767.7562294754
1535,0.0
2,1, 1, 1, 0,12, 0.00,60.00,Sunday
12,3213326.033956013
24,32446.696394163617
79,478151.76771612066
116,2258568.71853753
311,17531902.876639788
347,5832680.027649297
742,1.6370904631912707e-9
766,1.6370904631912707e-9
791,0.0
815,0.0
852,264158.8513081993
917,11699222.848990489
942,0.0
982,180000.0
1167,0.0
1192,0.0
1216,0.0
1509,0.0
1535,0.0
2,1, 1, 1, 0,13, 0.00,60.00,Sunday
12,3024727.365068271
24,31148.828538397072
79,465298.2255732141
116,2034399.0378626586
311,17784525.404956506
347,2310347.283679267
742,1.6370904631912709e-9
766,1.6370904631912709e-9
791,0.0
815,0.0
852,313881.27309400137
917,13901358.76146424
942,0.0
982,180000.0
1167,0.0
1192,0.004191158978695603
1216,0.004191158978695603
1509,1572819.3598129985
1535,0.0
2,1, 1, 1, 0,14, 0.00,60.00,Sunday
12,3505727.583249499
24,36340.29996146326
79,796919.612860201
116,2193157.6295224779
311,13256019.4449314
347,0.0
742,0.0
766,0.0
791,0.0
815,0.0
852,299310.04090535707
917,13256019.4449314
942,0.0
982,180000.0
1167,0.0
1192,0.002095579489347801
1216,0.002095579489347801
1509,0.0
1535,0.0
2,1, 1, 1, 0,15, 0.00,60.00,Sunday
12,3586302.775776066
24,40141.19868192242
79,807202.4465745263
116,2301285.066835394
311,15081911.24428371
347,2120457.551217268
742,0.0
766,0.0
791,0.0
815,0.0
852,257674.06368422346
917,11412020.753866476
942,0.0
982,180000.0
1167,0.0
1192,0.0
1216,0.0
1509,1549432.9391999648
1535,0.0
2,1, 1, 1, 0,16, 0.00,60.00,Sunday
12,4498177.793260633
24,41439.06653768897
79,1239081.4625761838
116,2846135.4251237979
311,15450165.848357626
347,6967933.7971442169
742,54.469642210460737
766,54.469642210460737
791,0.0
815,0.0
852,191521.8390229628
917,8482232.05121341
942,0.0
982,180000.0
1167,0.0
1192,0.0
1216,0.0
1509,0.0
1535,0.0
2,1, 1, 1, 0,17, 0.00,60.00,Sunday
12,3918939.5449133308
24,50524.14152805478
79,1041136.9135754241
116,2423066.3244988697
311,11515074.637083762
347,0.0
742,493.8497807343083
766,493.8497807343083
791,0.0
815,0.0
852,224212.16531098228
917,9930040.482979864
942,0.0
982,180000.0
1167,0.0
1192,0.006297596392858677
1216,0.006297596392858677
1509,1585034.1541038985
1535,0.0
2,1, 1, 1, 0,18, 0.00,60.00,Sunday
12,5427074.295481454
24,68694.29150878641
79,1982016.1984361776
116,2960666.50956333
311,10438700.716779197
347,0.0
742,428.1628680051653
766,428.1628680051653
791,0.0
815,0.0
852,235697.29597316014
917,10438700.716779197
942,0.0
982,180000.0
1167,0.0
1192,0.0
1216,0.0
1509,0.0
1535,0.0
2,1, 1, 1, 0,19, 0.00,60.00,Sunday
12,6163491.427669376
24,81672.97006645186
79,2475592.2167237859
116,3235890.1965887967
311,10002891.258565681
347,0.0
742,174.72631971359074
766,174.72631971359074
791,0.0
815,0.0
852,190336.04429034174
917,8429714.87542547
942,0.0
982,180000.0
1167,0.0
1192,0.004191158978695603
1216,0.004191158978695603
1509,1573176.3831402115
1535,0.0
2,1, 1, 1, 0,20, 0.00,60.00,Sunday
12,6537402.829920173
24,86864.44148951804
79,2570708.4285812939
116,3398572.432676935
311,20353576.296453667
347,5413934.1733206859
742,227.63876989338315
766,227.63876989338315
791,0.0
815,0.0
852,301257.5271724263
917,13342270.864185218
942,0.0
982,180000.0
1167,0.0
1192,0.00836060210776066
1216,0.00836060210776066
1509,1597371.258947765
1535,0.0
2,1, 1, 1, 0,21, 0.00,60.00,Sunday
12,5962406.464813924
24,92055.9129125842
79,2177390.0390083559
116,3247764.428350811
311,13306406.435314227
347,0.0
742,282.4121261301115
766,282.4121261301115
791,0.0
815,0.0
852,265196.08454217427
917,11745160.445594034
942,0.0
982,180000.0
1167,0.0
1192,0.002095579489347801
1216,0.002095579489347801
1509,1561245.989720193
1535,0.0
2,1, 1, 1, 0,22, 0.00,60.00,Sunday
12,5273811.234176692
24,89460.17720105112
79,1647824.1027206095
116,3087631.5330816458
311,15179896.497400886
347,0.0
742,122.47999167175294
766,122.47999167175294
791,0.0
815,0.0
852,268895.4211733855
917,11908998.845964278
942,0.0
982,180000.0
1167,0.0
1192,0.014658198500619337
1216,0.014658198500619337
1509,3270897.651436608
1535,0.0
2,1, 1, 1, 0,23, 0.00,60.00,Sunday
12,3848822.428488308
24,76481.49864338567
79,987152.0365752169
116,2311597.2841892486
311,14978722.390134167
347,353409.59186954479
742,23.308717886902739
766,23.308717886902739
791,0.0
815,0.0
852,293591.609080457
917,13002758.166973275
942,0.0
982,180000.0
1167,0.0
1192,0.012595192785717354
1216,0.012595192785717354
1509,1622554.631291348
1535,0.0
2,1, 1, 1, 0,24, 0.00,60.00,Sunday
12,3415665.500677663
24,64800.687941486765
79,640106.3987167422
116,2271951.048408395
311,20091771.64670153
347,7068191.837390894
742,0.0
766,0.0
791,0.0
815,0.0
852,258807.36561103888
917,11462213.097342156
942,0.0
982,180000.0
1167,0.0
1192,0.0020955794893478018
1216,0.0020955794893478018
1509,1561366.7119684823
1535,0.0
3,1, 1, 1, 0,Sunday
14,86263890.3563929,1985093.5474734046, 5,60,6537402.829920173,20,60
313,387579842.11965569,10002891.258565681,19,60,21061460.319254497, 2,60
2,2, 1, 2, 0, 1, 0.00,60.00,Monday
12,2419942.317833249
24,51822.00938382133
79,190746.565400732
116,1741426.3895293582
311,21700647.90279215
347,7068191.837390894
742,299.88036418144477
766,299.88036418144477
791,0.0
815,0.0
852,255947.35351933767
917,11335547.19670731
942,0.0
982,180000.0
1167,0.0
1192,0.01672120421552132
1216,0.01672120421552132
1509,3296908.8686939447
1535,0.0
2,2, 1, 2, 0, 2, 0.00,60.00,Monday
12,1985922.4096981246
24,47928.40581652169
79,127250.06721477406
116,1302524.0486591014
311,14654198.984357357
347,117803.19728984825
742,748.9874084587427
766,748.9874084587427
791,0.0
815,0.0
852,328219.8880077271
917,14536395.787067509
942,0.0
982,180000.0
1167,0.0
1192,0.0
1216,0.0
1509,0.0
1535,0.0
2,2, 1, 2, 0, 3, 0.00,60.00,Monday
12,1985615.0910647673
24,47928.40581652169
79,127250.06721477406
116,1272239.9033896879
311,17413572.294343845
347,0.0
742,202.4697783297597
766,202.4697783297597
791,0.0
815,0.0
852,358196.71464378366
917,15864027.147455292
942,0.0
982,180000.0
1167,0.0
1192,0.0
1216,0.0
1509,1549545.146888554
1535,0.0
2,2, 1, 2, 0, 4, 0.00,60.00,Monday
12,1987474.8906734442
24,46630.53796075515
79,127250.06721477406
116,1263748.3579172772
311,16379954.35371269
347,0.0
742,0.0
766,0.0
791,0.0
815,0.0
852,369845.9275806379
917,16379954.35371269
942,0.0
982,180000.0
1167,0.0
1192,0.0
1216,0.0
1509,0.0
1535,0.0
2,2, 1, 2, 0, 5, 0.00,60.00,Monday
12,1996717.892415445
24,42736.93439345551
79,127250.06721477406
116,1270462.2922379042
311,21836581.210424037
347,0.0
742,0.0
766,0.0
791,0.0
815,0.0
852,376268.5985693112
917,16664405.390693339
942,0.0
982,180000.0
1167,0.0
1192,0.028122025271558577
1216,0.028122025271558577
1509,5172175.819730695
1535,0.0
2,2, 1, 2, 0, 6, 0.00,60.00,Monday
12,2025230.8443155676
24,46630.53796075515
79,127250.06721477406
116,1288007.0766144864
311,21985221.106197966
347,0.0
742,0.0
766,0.0
791,0.0
815,0.0
852,383343.1625255521
917,16977727.847516609
942,0.0
982,180000.0
1167,0.0
1192,0.01987000241195066
1216,0.01987000241195066
1509,5007493.258681358
1535,0.0
2,2, 1, 2, 0, 7, 0.00,60.00,Monday
12,2512538.8417576497
24,55715.61295112095
79,388176.97271577539
116,1500370.9525655534
311,24581176.792982148
347,0.0
742,0.0
766,0.0
791,0.0
815,0.0
852,388275.3035252001
917,17196165.414123849
942,0.0
982,180000.0
1167,0.0
1192,0.04473465023892717
1216,0.04473465023892717
1509,7385011.378858299
1535,0.0
2,2, 1, 2, 0, 8, 0.00,60.00,Monday
12,3327537.4095633605
24,60907.08437418714
79,809773.1550031075
116,1958252.8108870025
311,22709454.850864419
347,0.0
742,0.0
766,0.0
791,0.0
815,0.0
852,318604.3592990633
917,14110537.586153873
942,0.0
982,180000.0
1167,0.0
1192,0.043594568133323439
1216,0.043594568133323439
1509,8598917.264710544
1535,0.0
2,2, 1, 2, 0, 9, 0.00,60.00,Monday
12,3426109.363316814
24,44034.80224922205
79,858616.6151461522
116,1879076.198384576
311,24520914.541884729
347,0.0
742,346.54495391332599
766,346.54495391332599
791,0.0
815,0.0
852,464381.7475368635
917,20566812.448388224
942,0.0
982,180000.0
1167,0.0
1192,0.024973227075129245
1216,0.024973227075129245
1509,3954102.093496506
1535,0.0
2,2, 1, 2, 0,10, 0.00,60.00,Monday
12,3364305.093690359
24,29850.96068263053
79,881752.9910033839
116,1882885.7989016616
311,26510515.364890055
347,0.0
742,3.274180926382541e-9
766,3.274180926382541e-9
791,0.0
815,0.0
852,389815.3431026832
917,17264371.5943219
942,0.0
982,180000.0
1167,0.0
1192,0.044951808735232638
1216,0.044951808735232638
1509,9246143.770568157
1535,0.0
2,2, 1, 2, 0,11, 0.00,60.00,Monday
12,2721394.7784896937
24,31148.828538397072
79,493576.01828760848
116,1661155.699004533
311,17342330.537337547
347,0.0
742,0.0
766,0.0
791,0.0
815,0.0
852,355514.2326591551
917,15745223.80480313
942,0.0
982,180000.0
1167,0.0
1192,0.00836060210776066
1216,0.00836060210776066
1509,1597106.7325344173
1535,0.0
2,2, 1, 2, 0,12, 0.00,60.00,Monday
12,2113926.950969189
24,32446.696394163617
79,127250.06721477406
116,1437997.0388701098
311,14891291.78872145
347,0.0
742,0.0
766,0.0
791,0.0
815,0.0
852,336233.14849014169
917,14891291.78872145
942,0.0
982,180000.0
1167,0.0
1192,0.0
1216,0.0
1509,0.0
1535,0.0
2,2, 1, 2, 0,13, 0.00,60.00,Monday
12,2117961.014918996
24,31148.828538397072
79,127250.06721477406
116,1454590.245717674
311,15942151.566335582
347,0.0
742,0.0
766,0.0
791,0.0
815,0.0
852,324971.8734481512
917,14392545.804524586
942,0.0
982,180000.0
1167,0.0
1192,0.0
1216,0.0
1509,1549605.7618109964
1535,0.0
2,2, 1, 2, 0,14, 0.00,60.00,Monday
12,2736510.3560221309
24,36340.29996146326
79,462727.5171446329
116,1748730.9152326165
311,13672402.282413677
347,0.0
742,0.0
766,0.0
791,0.0
815,0.0
852,308711.6236834181
917,13672402.282413677
942,0.0
982,180000.0
1167,0.0
1192,0.0
1216,0.0
1509,0.0
1535,0.0
2,2, 1, 2, 0,15, 0.00,60.00,Monday
12,3326448.3440651039
24,40141.19868192242
79,807202.4465745263
116,2010596.9574533709
311,14338631.228967477
347,0.0
742,3.2741809263825414e-9
766,3.2741809263825414e-9
791,0.0
815,0.0
852,288507.74135528397
917,12777600.837748679
942,0.0
982,180000.0
1167,0.0
1192,0.0020955794893478018
1216,0.0020955794893478018
1509,1561030.391218798
1535,0.0
2,2, 1, 2, 0,16, 0.00,60.00,Monday
12,3467668.6303801678
24,41439.06653768897
79,868899.4488604773
116,2099906.3561989904
311,12640116.478780859
347,353409.59186954479
742,0.0
766,0.0
791,0.0
815,0.0
852,277423.7587830114
917,12286706.886911314
942,0.0
982,180000.0
1167,0.0
1192,0.0
1216,0.0
1509,0.0
1535,0.0
2,2, 1, 2, 0,17, 0.00,60.00,Monday
12,3195982.4120700296
24,50524.14152805478
79,583550.8132879537
116,2148055.565240248
311,19022463.31817474
347,7068191.837390894
742,0.0
766,0.0
791,0.0
815,0.0
852,233851.89201377284
917,10356970.378914835
942,0.0
982,180000.0
1167,0.0
1192,0.00836060210776066
1216,0.00836060210776066
1509,1597301.101869008
1535,0.0
2,2, 1, 2, 0,18, 0.00,60.00,Monday
12,3510317.7038109165
24,68694.29150878641
79,745505.4442885751
116,2298578.344641154
311,18263870.32934601
347,7068191.837390894
742,284.60231845037927
766,284.60231845037927
791,0.0
815,0.0
852,217539.62337240086
917,9634523.01414585
942,0.0
982,180000.0
1167,0.0
1192,0.002095579489347801
1216,0.002095579489347801
1509,1561155.4778092635
1535,0.0
2,2, 1, 2, 0,19, 0.00,60.00,Monday
12,6838086.898831038
24,81672.97006645186
79,2475592.2167237859
116,3975019.3233431919
311,15941641.306485624
347,7068191.837390894
742,268.18908166724216
766,268.18908166724216
791,0.0
815,0.0
852,125802.38869760905
917,5571610.313339394
942,0.0
982,180000.0
1167,0.0
1192,0.01705378488802733
1216,0.01705378488802733
1509,3301839.155755335
1535,0.0
2,2, 1, 2, 0,20, 0.00,60.00,Monday
12,6777287.58670487
24,86864.44148951804
79,2570708.4285812939
116,3734985.771034966
311,22661796.845616718
347,11991882.769822119
742,709.5093202855422
766,709.5093202855422
791,0.0
815,0.0
852,204728.94559909157
917,9067156.168877082
942,0.0
982,180000.0
1167,0.0
1192,0.009060577150208853
1216,0.009060577150208853
1509,1602757.9069175148
1535,0.0
2,2, 1, 2, 0,21, 0.00,60.00,Monday
12,6084164.286849613
24,92055.9129125842
79,2177390.0390083559
116,3426559.6891825955
311,17840707.525749156
347,7068191.837390894
742,711.4241358787695
766,711.4241358787695
791,0.0
815,0.0
852,208158.64574607765
917,9219052.74976428
942,0.0
982,180000.0
1167,0.0
1192,0.0005436699358820912
1216,0.0005436699358820912
1509,1553462.938593978
1535,0.0
2,2, 1, 2, 0,22, 0.00,60.00,Monday
12,5291342.889299495
24,89460.17720105112
79,1647824.1027206095
116,3145078.5626040806
311,16245940.921347689
347,2711979.988672677
742,602.5680147480671
766,602.5680147480671
791,0.0
815,0.0
852,228980.0467737543
917,10141203.226436302
942,0.0
982,180000.0
1167,0.0
1192,0.02375661717599112
1216,0.02375661717599112
1509,3392757.7062387096
1535,0.0
2,2, 1, 2, 0,23, 0.00,60.00,Monday
12,3782475.534096521
24,76481.49864338567
79,987152.0365752169
116,2254701.7771850016
311,19630173.688881678
347,0.0
742,425.49384292833568
766,425.49384292833568
791,0.0
815,0.0
852,284140.2216929165
917,12584169.553601519
942,0.0
982,180000.0
1167,0.0
1192,0.03310423948086499
1216,0.03310423948086499
1509,7046004.135280159
1535,0.0
2,2, 1, 2, 0,24, 0.00,60.00,Monday
12,2524807.3250616125
24,64800.687941486765
79,298202.1777154301
116,1657730.8824703955
311,14352761.519243319
347,0.0
742,51.10395509109367
766,51.10395509109367
791,0.0
815,0.0
852,324073.5769343
917,14352761.519243319
942,0.0
982,180000.0
1167,0.0
1192,0.00043833388580493614
1216,0.00043833388580493614
1509,0.0
1535,0.0
3,2, 1, 2, 0,Monday
14,79519768.86589818,1985615.0910647673, 3,60,6838086.898831038,19,60
313,445078516.7398509,12640116.478780859,16,60,26510515.364890055,10,60
2,3, 1, 3, 0, 1, 0.00,60.00,Tuesday
12,2284164.661457614
24,51822.00938382133
79,190746.565400732
116,1500249.6731363927
311,17558573.217312345
347,0.0
742,0.0
766,0.0
791,0.0
815,0.0
852,361346.4135366679
917,16003522.867824242
942,0.0
982,180000.0
1167,0.0
1192,0.0007237606021430339
1216,0.0007237606021430339
1509,1555050.3494881038
1535,0.0
2,3, 1, 3, 0, 2, 0.00,60.00,Tuesday
12,2029483.3274136377
24,47928.40581652169
79,127250.06721477406
116,1298504.4367192188
311,18216422.104682264
347,0.0
742,0.0
766,0.0
791,0.0
815,0.0
852,375800.4176631232
917,16643670.318868146
942,0.0
982,180000.0
1167,0.0
1192,0.004191158978695603
1216,0.004191158978695603
1509,1572751.7858141189
1535,0.0
2,3, 1, 3, 0, 3, 0.00,60.00,Tuesday
12,2014510.5511387829
24,47928.40581652169
79,127250.06721477406
116,1272239.9033896879
311,17143766.308402819
347,0.0
742,0.0
766,0.0
791,0.0
815,0.0
852,387092.1747177993
917,17143766.308402819
942,0.0
982,180000.0
1167,0.0
1192,0.0
1216,0.0
1509,0.0
1535,0.0
2,3, 1, 3, 0, 4, 0.00,60.00,Tuesday
12,2019517.3698234512
24,46630.53796075515
79,127250.06721477406
116,1263748.3579172772
311,17799070.549719667
347,0.0
742,0.0
766,0.0
791,0.0
815,0.0
852,401888.406730645
917,17799070.549719667
942,0.0
982,180000.0
1167,0.0
1192,0.0
1216,0.0
1509,0.0
1535,0.0
2,3, 1, 3, 0, 5, 0.00,60.00,Tuesday
12,2036883.331365339
24,42736.93439345551
79,127250.06721477406
116,1270462.2922379042
311,19992723.792871138
347,0.0
742,0.0
766,0.0
791,0.0
815,0.0
852,416434.03751920509
917,18443276.016361238
942,0.0
982,180000.0
1167,0.0
1192,0.0
1216,0.0
1509,1549447.7765099
1535,0.0
2,3, 1, 3, 0, 6, 0.00,60.00,Tuesday
12,2277939.4354803257
24,46630.53796075515
79,214140.01210082178
116,1408403.4713334165
311,26365125.03348215
347,0.0
742,0.0
766,0.0
791,0.0
815,0.0
852,428765.41408533256
917,18989415.287362327
942,0.0
982,180000.0
1167,0.0
1192,0.04440891249446895
1216,0.04440891249446895
1509,7375709.746119821
1535,0.0
2,3, 1, 3, 0, 7, 0.00,60.00,Tuesday
12,2559912.1891710294
24,55715.61295112095
79,388176.97271577539
116,1500370.9525655534
311,28542974.889020549
347,0.0
742,0.0
766,0.0
791,0.0
815,0.0
852,435648.6509385794
917,19294264.136718375
942,0.0
982,180000.0
1167,0.0
1192,0.04500609835930901
1216,0.04500609835930901
1509,9248710.752302172
1535,0.0
2,3, 1, 3, 0, 8, 0.00,60.00,Tuesday
12,2201053.9299429908
24,60907.08437418714
79,127250.06721477406
116,1465096.088689203
311,19596397.79513327
347,0.0
742,0.0
766,0.0
791,0.0
815,0.0
852,367800.68966482646
917,16289373.65184415
942,0.0
982,180000.0
1167,0.0
1192,0.017589838200743205
1216,0.017589838200743205
1509,3307024.1432891229
1535,0.0
2,3, 1, 3, 0, 9, 0.00,60.00,Tuesday
12,2286807.4847891808
24,44034.80224922205
79,127250.06721477406
116,1382937.4764895675
311,24473216.211618097
347,0.0
742,3.2741809263825426e-9
766,3.2741809263825426e-9
791,0.0
815,0.0
852,552585.1388356173
917,24473216.211618097
942,0.0
982,180000.0
1167,0.0
1192,0.0
1216,0.0
1509,0.0
1535,0.0
2,3, 1, 3, 0,10, 0.00,60.00,Tuesday
12,2981668.6112052116
24,29850.96068263053
79,503858.85200193358
116,1838439.3876862894
311,26260426.673289155
347,5664579.273937384
742,6.548361852765083e-9
766,6.548361852765083e-9
791,0.0
815,0.0
852,429519.4108343578
917,19022808.73963764
942,0.0
982,180000.0
1167,0.0
1192,0.004191158978695603
1216,0.004191158978695603
1509,1573038.6597141273
1535,0.0
2,3, 1, 3, 0,11, 0.00,60.00,Tuesday
12,3158085.406837133
24,31148.828538397072
79,493576.01828760848
116,2098516.5777901455
311,26029537.183388644
347,7068191.837390894
742,6.5483618527650828e-9
766,6.5483618527650828e-9
791,0.0
815,0.0
852,354843.9822209822
917,15715539.358486128
942,0.0
982,180000.0
1167,0.0
1192,0.012595192785717354
1216,0.012595192785717354
1509,3245805.98751162
1535,0.0
2,3, 1, 3, 0,12, 0.00,60.00,Tuesday
12,3549873.5751403376
24,32446.696394163617
79,478151.76771612066
116,2553969.0002108055
311,23411422.40928929
347,9889845.487130328
742,3.2741809263825418e-9
766,3.2741809263825418e-9
791,0.0
815,0.0
852,305306.1108192479
917,13521576.922158963
942,0.0
982,180000.0
1167,0.0
1192,0.0025305154380534748
1216,0.0025305154380534748
1509,0.0
1535,0.0
2,3, 1, 3, 0,13, 0.00,60.00,Tuesday
12,3144877.538329364
24,31148.828538397072
79,465298.2255732141
116,2194465.024841997
311,21145954.317750444
347,7460768.485623443
742,0.0
766,0.0
791,0.0
815,0.0
852,273965.45937575548
917,12133543.685134612
942,0.0
982,180000.0
1167,0.0
1192,0.00030547454522375
1216,0.00030547454522375
1509,1551642.1469923899
1535,0.0
2,3, 1, 3, 0,14, 0.00,60.00,Tuesday
12,2810391.9141368309
24,36340.29996146326
79,462727.5171446329
116,1748730.9152326165
311,18547261.702992649
347,0.0
742,0.0
766,0.0
791,0.0
815,0.0
852,382593.1817981181
917,16944512.25917177
942,0.0
982,180000.0
1167,0.0
1192,0.00912513795509485
1216,0.00912513795509485
1509,1602749.4438208782
1535,0.0
2,3, 1, 3, 0,15, 0.00,60.00,Tuesday
12,2817487.1984968467
24,40141.19868192242
79,467868.9340017954
116,1751510.117661406
311,18305054.517201127
347,0.0
742,6.5483618527650828e-9
766,6.5483618527650828e-9
791,0.0
815,0.0
852,377966.9481517225
917,16739622.897665829
942,0.0
982,180000.0
1167,0.0
1192,0.002697014355917365
1216,0.002697014355917365
1509,1565431.6195352984
1535,0.0
2,3, 1, 3, 0,16, 0.00,60.00,Tuesday
12,2908648.963018807
24,41439.06653768897
79,498717.435144771
116,1801125.0356428098
311,17155956.785794047
347,0.0
742,3.2741809263825418e-9
766,3.2741809263825418e-9
791,0.0
815,0.0
852,387367.4256935377
917,17155956.785794047
942,0.0
982,180000.0
1167,0.0
1192,0.0007339544134408232
1216,0.0007339544134408232
1509,0.0
1535,0.0
2,3, 1, 3, 0,17, 0.00,60.00,Tuesday
12,3131885.792633393
24,50524.14152805478
79,583550.8132879537
116,1918937.6846669315
311,19579879.91891472
347,353409.59186954479
742,6.548361852765083e-9
766,6.548361852765083e-9
791,0.0
815,0.0
852,398873.15315045349
917,17665529.222574358
942,0.0
982,180000.0
1167,0.0
1192,0.0020955794893478018
1216,0.0020955794893478018
1509,1560941.1044708207
1535,0.0
2,3, 1, 3, 0,18, 0.00,60.00,Tuesday
12,4586426.150416764
24,68694.29150878641
79,1365046.175576667
116,2611185.7702383508
311,21073352.1790725
347,5063031.032457308
742,0.0
766,0.0
791,0.0
815,0.0
852,361499.9130929606
917,16010321.14661519
942,0.0
982,180000.0
1167,0.0
1192,0.004191158978695603
1216,0.004191158978695603
1509,0.0
1535,0.0
2,3, 1, 3, 0,19, 0.00,60.00,Tuesday
12,6154007.175771969
24,81672.97006645186
79,2475592.2167237859
116,3132570.9108155907
311,14135054.144180665
347,0.0
742,1.6370904631912709e-9
766,1.6370904631912709e-9
791,0.0
815,0.0
852,284171.0781661416
917,12585536.143268327
942,0.0
982,180000.0
1167,0.0
1192,0.0
1216,0.0
1509,1549518.000912338
1535,0.0
2,3, 1, 3, 0,20, 0.00,60.00,Tuesday
12,6457591.341919629
24,86864.44148951804
79,2570708.4285812939
116,3123193.278146578
311,22003686.90782142
347,0.0
742,3.2741809263825418e-9
766,3.2741809263825418e-9
791,0.0
815,0.0
852,496825.1937022399
917,22003686.90782142
942,0.0
982,180000.0
1167,0.0
1192,0.0020955794893478018
1216,0.0020955794893478018
1509,0.0
1535,0.0
2,3, 1, 3, 0,21, 0.00,60.00,Tuesday
12,6055697.518097044
24,92055.9129125842
79,2177390.0390083559
116,3185382.97278963
311,20200846.543265385
347,0.0
742,0.0
766,0.0
791,0.0
815,0.0
852,420868.59338647426
917,18639676.23944879
942,0.0
982,180000.0
1167,0.0
1192,0.0020955794893478018
1216,0.0020955794893478018
1509,1561170.303816595
1535,0.0
2,3, 1, 3, 0,22, 0.00,60.00,Tuesday
12,4580993.034264294
24,89460.17720105112
79,1141394.5422900946
116,2749055.6336164239
311,18649157.88475808
347,0.0
742,0.0
766,0.0
791,0.0
815,0.0
852,421082.6811567256
917,18649157.88475808
942,0.0
982,180000.0
1167,0.0
1192,0.0020955794893478018
1216,0.0020955794893478018
1509,0.0
1535,0.0
2,3, 1, 3, 0,23, 0.00,60.00,Tuesday
12,3935050.180583599
24,76481.49864338567
79,987152.0365752169
116,2254701.7771850016
311,24357324.83035182
347,0.0
742,0.0
766,0.0
791,0.0
815,0.0
852,436714.86817999448
917,19341485.39412079
942,0.0
982,180000.0
1167,0.0
1192,0.0203043194045616
1216,0.0203043194045616
1509,5015839.436231029
1535,0.0
2,3, 1, 3, 0,24, 0.00,60.00,Tuesday
12,3331496.2596854355
24,64800.687941486765
79,640106.3987167422
116,1998608.893991696
311,19840414.547663884
347,0.0
742,0.0
766,0.0
791,0.0
815,0.0
852,447980.27903551029
917,19840414.547663884
942,0.0
982,180000.0
1167,0.0
1192,0.0
1216,0.0
1509,0.0
1535,0.0
3,3, 1, 3, 0,Tuesday
14,79314452.94111902,2014510.5511387829, 3,60,6457591.341919629,20,60
313,500383600.44797608,14135054.144180665,19,60,28542974.889020549, 7,60
2,4, 1, 4, 0, 1, 0.00,60.00,Wednesday
12,2604728.5552278684
24,51822.00938382133
79,254243.06358668998
116,1648921.493868357
311,20804209.953498655
347,0.0
742,0.0
766,0.0
791,0.0
815,0.0
852,469741.9883889996
917,20804209.953498655
942,0.0
982,180000.0
1167,0.0
1192,0.0
1216,0.0
1509,0.0
1535,0.0
2,4, 1, 4, 0, 2, 0.00,60.00,Wednesday
12,2283502.406817251
24,47928.40581652169
79,148329.87632914066
116,1419623.500761458
311,26592653.406248183
347,0.0
742,6.548361852765085e-9
766,6.548361852765085e-9
791,0.0
815,0.0
852,487620.6239101308
917,21596029.497540937
942,0.0
982,180000.0
1167,0.0
1192,0.01927281654711061
1216,0.01927281654711061
1509,4996623.908707248
1535,0.0
2,4, 1, 4, 0, 3, 0.00,60.00,Wednesday
12,2241298.0018421567
24,47928.40581652169
79,127250.06721477406
116,1380937.5940682698
311,22373795.178803825
347,0.0
742,0.0
766,0.0
791,0.0
815,0.0
852,505181.9347425912
917,22373795.178803825
942,0.0
982,180000.0
1167,0.0
1192,0.0
1216,0.0
1509,0.0
1535,0.0
2,4, 1, 4, 0, 4, 0.00,60.00,Wednesday
12,2236446.5640219247
24,46630.53796075515
79,127250.06721477406
116,1359302.0059088919
311,23174622.25453547
347,0.0
742,0.0
766,0.0
791,0.0
815,0.0
852,523263.95293750308
917,23174622.25453547
942,0.0
982,180000.0
1167,0.0
1192,0.0
1216,0.0
1509,0.0
1535,0.0
2,4, 1, 4, 0, 5, 0.00,60.00,Wednesday
12,2172690.0760333838
24,42736.93439345551
79,127250.06721477406
116,1270462.2922379042
311,30447168.004721524
347,0.0
742,3.2741809263825418e-9
766,3.2741809263825418e-9
791,0.0
815,0.0
852,552240.7821872495
917,24457965.141480429
942,0.0
982,180000.0
1167,0.0
1192,0.028990659256780468
1216,0.028990659256780468
1509,5989202.863241095
1535,0.0
2,4, 1, 4, 0, 6, 0.00,60.00,Wednesday
12,2829946.120134979
24,46630.53796075515
79,388176.97271577539
116,1649015.5934404494
311,38818903.674497667
347,0.0
742,0.0
766,0.0
791,0.0
815,0.0
852,566123.0160179992
917,25072789.692781375
942,0.0
982,180000.0
1167,0.0
1192,0.07274809626233302
1216,0.07274809626233302
1509,13746113.981716289
1535,0.0
2,4, 1, 4, 0, 7, 0.00,60.00,Wednesday
12,3573143.69150509
24,55715.61295112095
79,910030.7837177779
116,1856418.5632043367
311,35090249.936199288
347,0.0
742,0.0
766,0.0
791,0.0
815,0.0
852,570978.731631854
917,25287842.4868728
942,0.0
982,180000.0
1167,0.0
1192,0.058089897761713669
1216,0.058089897761713669
1509,9802407.449326484
1535,0.0
2,4, 1, 4, 0, 8, 0.00,60.00,Wednesday
12,4057659.4423374647
24,60907.08437418714
79,1151677.3760044198
116,2203796.0575389305
311,29588309.470602648
347,0.0
742,0.0
766,0.0
791,0.0
815,0.0
852,461278.9244199272
917,20429392.79000364
942,0.0
982,180000.0
1167,0.0