Program Version,EnergyPlus, Version 9.4.0-998c4b761e, YMD=2021.04.17 02:44
1,5,Environment Title[],Latitude[deg],Longitude[deg],Time Zone[],Elevation[m]
2,8,Day of Simulation[],Month[],Day of Month[],DST Indicator[1=yes 0=no],Hour[],StartMinute[],EndMinute[],DayType
3,5,Cumulative Day of Simulation[],Month[],Day of Month[],DST Indicator[1=yes 0=no],DayType  ! When Daily Report Variables Requested
4,2,Cumulative Days of Simulation[],Month[]  ! When Monthly Report Variables Requested
5,1,Cumulative Days of Simulation[] ! When Run Period Report Variables Requested
6,1,Calendar Year of Simulation[] ! When Annual Report Variables Requested
8,1,Electricity:Facility [J] !TimeStep
1987,1,NaturalGas:Facility [J] !TimeStep
End of Data Dictionary
1,BUFFALO NIAGARA INTL AP ANN CLG .4% CONDNS DB=>MWB 1 HVAC Sizing Pass 1,  42.93, -78.73,  -5.00, 215.00
2,1, 7,21, 0, 1, 0.00,60.00,SummerDesignDay
8,3910118645.6062967
1987,0.0
2,1, 7,21, 0, 2, 0.00,60.00,SummerDesignDay
8,3909768160.4273898
1987,0.0
2,1, 7,21, 0, 3, 0.00,60.00,SummerDesignDay
8,3909522062.9420168
1987,0.0
2,1, 7,21, 0, 4, 0.00,60.00,SummerDesignDay
8,3909303009.1297729
1987,0.0
2,1, 7,21, 0, 5, 0.00,60.00,SummerDesignDay
8,3909133537.070671
1987,0.0
2,1, 7,21, 0, 6, 0.00,60.00,SummerDesignDay
8,3669553450.4511644
1987,0.0
2,1, 7,21, 0, 7, 0.00,60.00,SummerDesignDay
8,3669990250.1179134
1987,0.0
2,1, 7,21, 0, 8, 0.00,60.00,SummerDesignDay
8,3671207538.1730129
1987,0.0
2,1, 7,21, 0, 9, 0.00,60.00,SummerDesignDay
8,3701257795.391135
1987,0.0
2,1, 7,21, 0,10, 0.00,60.00,SummerDesignDay
8,4604712641.705773
1987,0.0
2,1, 7,21, 0,11, 0.00,60.00,SummerDesignDay
8,4485524282.783094
1987,0.0
2,1, 7,21, 0,12, 0.00,60.00,SummerDesignDay
8,4551021373.613332
1987,0.0
2,1, 7,21, 0,13, 0.00,60.00,SummerDesignDay
8,4501337338.719945
1987,344161098.4709882
2,1, 7,21, 0,14, 0.00,60.00,SummerDesignDay
8,4515516306.0985159
1987,0.0
2,1, 7,21, 0,15, 0.00,60.00,SummerDesignDay
8,4524635336.620764
1987,258761743.69233293
2,1, 7,21, 0,16, 0.00,60.00,SummerDesignDay
8,4503023790.448581
1987,86690207.05777325
2,1, 7,21, 0,17, 0.00,60.00,SummerDesignDay
8,4461368481.998838
1987,86171917.02088222
2,1, 7,21, 0,18, 0.00,60.00,SummerDesignDay
8,4393196994.761732
1987,256738310.0595167
2,1, 7,21, 0,19, 0.00,60.00,SummerDesignDay
8,4283244069.2834765
1987,0.0
2,1, 7,21, 0,20, 0.00,60.00,SummerDesignDay
8,4159097521.110874
1987,86027333.0043423
2,1, 7,21, 0,21, 0.00,60.00,SummerDesignDay
8,4439669282.545606
1987,254786764.93383337
2,1, 7,21, 0,22, 0.00,60.00,SummerDesignDay
8,4072239873.979092
1987,0.0
2,1, 7,21, 0,23, 0.00,60.00,SummerDesignDay
8,4054770789.588476
1987,0.0
2,1, 7,21, 0,24, 0.00,60.00,SummerDesignDay
8,4041154303.900394
1987,0.0
1,BUFFALO NIAGARA INTL AP ANN CLG .4% CONDNS WB=>MDB 1 HVAC Sizing Pass 1,  42.93, -78.73,  -5.00, 215.00
2,1, 7,21, 0, 1, 0.00,60.00,SummerDesignDay
8,3911203204.946753
1987,0.0
2,1, 7,21, 0, 2, 0.00,60.00,SummerDesignDay
8,3909993216.813816
1987,0.0
2,1, 7,21, 0, 3, 0.00,60.00,SummerDesignDay
8,3909208176.1234638
1987,0.0
2,1, 7,21, 0, 4, 0.00,60.00,SummerDesignDay
8,3908557209.5379526
1987,0.0
2,1, 7,21, 0, 5, 0.00,60.00,SummerDesignDay
8,3908070933.7280905
1987,0.0
2,1, 7,21, 0, 6, 0.00,60.00,SummerDesignDay
8,3668530367.2154929
1987,0.0
2,1, 7,21, 0, 7, 0.00,60.00,SummerDesignDay
8,3669807101.8876864
1987,0.0
2,1, 7,21, 0, 8, 0.00,60.00,SummerDesignDay
8,3705761859.476163
1987,0.0
2,1, 7,21, 0, 9, 0.00,60.00,SummerDesignDay
8,3881649588.048849
1987,0.0
2,1, 7,21, 0,10, 0.00,60.00,SummerDesignDay
8,4897018417.821859
1987,0.0
2,1, 7,21, 0,11, 0.00,60.00,SummerDesignDay
8,4777399665.07864
1987,0.0
2,1, 7,21, 0,12, 0.00,60.00,SummerDesignDay
8,4876751156.31305
1987,0.0
2,1, 7,21, 0,13, 0.00,60.00,SummerDesignDay
8,4805433380.5059399
1987,344161098.4709882
2,1, 7,21, 0,14, 0.00,60.00,SummerDesignDay
8,4809934645.621838
1987,0.0
2,1, 7,21, 0,15, 0.00,60.00,SummerDesignDay
8,4828479788.084222
1987,258761743.69233293
2,1, 7,21, 0,16, 0.00,60.00,SummerDesignDay
8,4795446218.706982
1987,86690207.05777325
2,1, 7,21, 0,17, 0.00,60.00,SummerDesignDay
8,4730708110.154289
1987,86171917.02088222
2,1, 7,21, 0,18, 0.00,60.00,SummerDesignDay
8,4634256658.5416159
1987,256738310.0595167
2,1, 7,21, 0,19, 0.00,60.00,SummerDesignDay
8,4509046777.272942
1987,0.0
2,1, 7,21, 0,20, 0.00,60.00,SummerDesignDay
8,4366376954.382061
1987,86027333.0043423
2,1, 7,21, 0,21, 0.00,60.00,SummerDesignDay
8,4640762875.723757
1987,254786764.93382574
2,1, 7,21, 0,22, 0.00,60.00,SummerDesignDay
8,4187908339.036241
1987,0.0
2,1, 7,21, 0,23, 0.00,60.00,SummerDesignDay
8,4128913622.16894
1987,0.0
2,1, 7,21, 0,24, 0.00,60.00,SummerDesignDay
8,4077517143.8860728
1987,0.0
1,BUFFALO NIAGARA INTL AP ANN HTG 99.6% CONDNS DB 1 HVAC Sizing Pass 1,  42.93, -78.73,  -5.00, 215.00
2,1, 1,21, 0, 1, 0.00,60.00,WinterDesignDay
8,851450452.3157367
1987,6016593901.213058
2,1, 1,21, 0, 2, 0.00,60.00,WinterDesignDay
8,844945100.4018929
1987,4859434787.430601
2,1, 1,21, 0, 3, 0.00,60.00,WinterDesignDay
8,845104182.1254324
1987,4941976031.818757
2,1, 1,21, 0, 4, 0.00,60.00,WinterDesignDay
8,845261387.0931528
1987,5041353289.850324
2,1, 1,21, 0, 5, 0.00,60.00,WinterDesignDay
8,845422156.605642
1987,5146199777.482173
2,1, 1,21, 0, 6, 0.00,60.00,WinterDesignDay
8,845563254.6525164
1987,5225046064.787584
2,1, 1,21, 0, 7, 0.00,60.00,WinterDesignDay
8,957933170.3280321
1987,5299960571.239598
2,1, 1,21, 0, 8, 0.00,60.00,WinterDesignDay
8,958061200.0000677
1987,5366733229.201454
2,1, 1,21, 0, 9, 0.00,60.00,WinterDesignDay
8,641008764.6344305
1987,7774399370.655426
2,1, 1,21, 0,10, 0.00,60.00,WinterDesignDay
8,722043159.7444037
1987,11412686702.405434
2,1, 1,21, 0,11, 0.00,60.00,WinterDesignDay
8,717643107.4910114
1987,11292208681.453686
2,1, 1,21, 0,12, 0.00,60.00,WinterDesignDay
8,704119859.1070104
1987,11235210290.353735
2,1, 1,21, 0,13, 0.00,60.00,WinterDesignDay
8,684436158.8711388
1987,11096767940.2916
2,1, 1,21, 0,14, 0.00,60.00,WinterDesignDay
8,677158789.701301
1987,10656972010.564339
2,1, 1,21, 0,15, 0.00,60.00,WinterDesignDay
8,659833813.3747919
1987,10055541458.145337
2,1, 1,21, 0,16, 0.00,60.00,WinterDesignDay
8,656548056.7947968
1987,9710176835.354384
2,1, 1,21, 0,17, 0.00,60.00,WinterDesignDay
8,655624407.6876396
1987,9624093308.03029
2,1, 1,21, 0,18, 0.00,60.00,WinterDesignDay
8,1006183493.980784
1987,9413108594.782116
2,1, 1,21, 0,19, 0.00,60.00,WinterDesignDay
8,1025254845.5998002
1987,9521917066.834834
2,1, 1,21, 0,20, 0.00,60.00,WinterDesignDay
8,1023970272.646292
1987,9220956774.962002
2,1, 1,21, 0,21, 0.00,60.00,WinterDesignDay
8,1022980383.0709112
1987,9243647329.369908
2,1, 1,21, 0,22, 0.00,60.00,WinterDesignDay
8,963447815.1773927
1987,5710031972.527212
2,1, 1,21, 0,23, 0.00,60.00,WinterDesignDay
8,963659577.1547066
1987,5866508494.75211
2,1, 1,21, 0,24, 0.00,60.00,WinterDesignDay
8,963661976.8536546
1987,5950532396.210199
1,BUFFALO NIAGARA INTL AP ANN CLG .4% CONDNS DB=>MWB 1,  42.93, -78.73,  -5.00, 215.00
2,1, 7,21, 0, 1, 0.00,60.00,SummerDesignDay
8,3931121666.779606
1987,0.0
2,1, 7,21, 0, 2, 0.00,60.00,SummerDesignDay
8,3930782388.7158915
1987,0.0
2,1, 7,21, 0, 3, 0.00,60.00,SummerDesignDay
8,3930545689.7520177
1987,0.0
2,1, 7,21, 0, 4, 0.00,60.00,SummerDesignDay
8,3930337932.326822
1987,0.0
2,1, 7,21, 0, 5, 0.00,60.00,SummerDesignDay
8,3930174404.4203217
1987,0.0
2,1, 7,21, 0, 6, 0.00,60.00,SummerDesignDay
8,3690580117.5796415
1987,0.0
2,1, 7,21, 0, 7, 0.00,60.00,SummerDesignDay
8,3690983391.6388266
1987,0.0
2,1, 7,21, 0, 8, 0.00,60.00,SummerDesignDay
8,3692130163.117608
1987,0.0
2,1, 7,21, 0, 9, 0.00,60.00,SummerDesignDay
8,3721977778.064897
1987,0.0
2,1, 7,21, 0,10, 0.00,60.00,SummerDesignDay
8,4618212380.904644
1987,0.0
2,1, 7,21, 0,11, 0.00,60.00,SummerDesignDay
8,4501716455.004542
1987,0.0
2,1, 7,21, 0,12, 0.00,60.00,SummerDesignDay
8,4566843360.753692
1987,0.0
2,1, 7,21, 0,13, 0.00,60.00,SummerDesignDay
8,4517573321.29337
1987,344161098.470988
2,1, 7,21, 0,14, 0.00,60.00,SummerDesignDay
8,4531688977.257301
1987,0.0
2,1, 7,21, 0,15, 0.00,60.00,SummerDesignDay
8,4540738156.739094
1987,258761743.6923328
2,1, 7,21, 0,16, 0.00,60.00,SummerDesignDay
8,4519255279.412965
1987,86690207.05777313
2,1, 7,21, 0,17, 0.00,60.00,SummerDesignDay
8,4477867336.965875
1987,86171917.02088213
2,1, 7,21, 0,18, 0.00,60.00,SummerDesignDay
8,4410137130.7058329
1987,256738310.0595166
2,1, 7,21, 0,19, 0.00,60.00,SummerDesignDay
8,4300889501.689209
1987,0.0
2,1, 7,21, 0,20, 0.00,60.00,SummerDesignDay
8,4177507445.3299896
1987,86027333.00434217
2,1, 7,21, 0,21, 0.00,60.00,SummerDesignDay
8,4458523612.560493
1987,254786764.93383528
2,1, 7,21, 0,22, 0.00,60.00,SummerDesignDay
8,4093008879.3845779
1987,0.0
2,1, 7,21, 0,23, 0.00,60.00,SummerDesignDay
8,4075664307.309309
1987,0.0
2,1, 7,21, 0,24, 0.00,60.00,SummerDesignDay
8,4062136381.7979266
1987,0.0
1,BUFFALO NIAGARA INTL AP ANN CLG .4% CONDNS WB=>MDB 1,  42.93, -78.73,  -5.00, 215.00
2,1, 7,21, 0, 1, 0.00,60.00,SummerDesignDay
8,3932195844.2389318
1987,0.0
2,1, 7,21, 0, 2, 0.00,60.00,SummerDesignDay
8,3931023976.879235
1987,0.0
2,1, 7,21, 0, 3, 0.00,60.00,SummerDesignDay
8,3930269396.840491
1987,0.0
2,1, 7,21, 0, 4, 0.00,60.00,SummerDesignDay
8,3929655851.656907
1987,0.0
2,1, 7,21, 0, 5, 0.00,60.00,SummerDesignDay
8,3929189461.9257438
1987,0.0
2,1, 7,21, 0, 6, 0.00,60.00,SummerDesignDay
8,3689601634.4644277
1987,0.0
2,1, 7,21, 0, 7, 0.00,60.00,SummerDesignDay
8,3690772563.58742
1987,0.0
2,1, 7,21, 0, 8, 0.00,60.00,SummerDesignDay
8,3726387380.3895609
1987,0.0
2,1, 7,21, 0, 9, 0.00,60.00,SummerDesignDay
8,3901306258.3400595
1987,0.0
2,1, 7,21, 0,10, 0.00,60.00,SummerDesignDay
8,4908167708.732707
1987,0.0
2,1, 7,21, 0,11, 0.00,60.00,SummerDesignDay
8,4791754772.256289
1987,0.0
2,1, 7,21, 0,12, 0.00,60.00,SummerDesignDay
8,4890376820.017606
1987,0.0
2,1, 7,21, 0,13, 0.00,60.00,SummerDesignDay
8,4819882388.371145
1987,344161098.470988
2,1, 7,21, 0,14, 0.00,60.00,SummerDesignDay
8,4824437557.197518
1987,0.0
2,1, 7,21, 0,15, 0.00,60.00,SummerDesignDay
8,4842810577.991024
1987,258761743.6923328
2,1, 7,21, 0,16, 0.00,60.00,SummerDesignDay
8,4810014168.7795929
1987,86690207.05777313
2,1, 7,21, 0,17, 0.00,60.00,SummerDesignDay
8,4745726133.89713
1987,86171917.02088213
2,1, 7,21, 0,18, 0.00,60.00,SummerDesignDay
8,4649923823.3661379
1987,256738310.0595166
2,1, 7,21, 0,19, 0.00,60.00,SummerDesignDay
8,4525440179.444192
1987,0.0
2,1, 7,21, 0,20, 0.00,60.00,SummerDesignDay
8,4383617620.540533
1987,86027333.00434217
2,1, 7,21, 0,21, 0.00,60.00,SummerDesignDay
8,4658442095.20244
1987,254786764.93383528
2,1, 7,21, 0,22, 0.00,60.00,SummerDesignDay
8,4207976665.457972
1987,0.0
2,1, 7,21, 0,23, 0.00,60.00,SummerDesignDay
8,4149336708.2603385
1987,0.0
2,1, 7,21, 0,24, 0.00,60.00,SummerDesignDay
8,4098264231.8985769
1987,0.0
1,BUFFALO NIAGARA INTL AP ANN HTG 99.6% CONDNS DB 1,  42.93, -78.73,  -5.00, 215.00
2,1, 1,21, 0, 1, 0.00,60.00,WinterDesignDay
8,851450452.3157364
1987,6016593901.21305
2,1, 1,21, 0, 2, 0.00,60.00,WinterDesignDay
8,844945100.4018929
1987,4859434787.4306
2,1, 1,21, 0, 3, 0.00,60.00,WinterDesignDay
8,845104182.1254324
1987,4941976031.818757
2,1, 1,21, 0, 4, 0.00,60.00,WinterDesignDay
8,845261387.0931528
1987,5041353289.850324
2,1, 1,21, 0, 5, 0.00,60.00,WinterDesignDay
8,845422156.605642
1987,5146199777.482189
2,1, 1,21, 0, 6, 0.00,60.00,WinterDesignDay
8,845563254.6525164
1987,5225046064.787584
2,1, 1,21, 0, 7, 0.00,60.00,WinterDesignDay
8,957933170.3280321
1987,5299960571.239598
2,1, 1,21, 0, 8, 0.00,60.00,WinterDesignDay
8,958061200.0000677
1987,5366733229.201454
2,1, 1,21, 0, 9, 0.00,60.00,WinterDesignDay
8,641008764.6344307
1987,7774399370.655417
2,1, 1,21, 0,10, 0.00,60.00,WinterDesignDay
8,722043159.7444033
1987,11412686702.40543
2,1, 1,21, 0,11, 0.00,60.00,WinterDesignDay
8,717643107.4910109
1987,11292208681.453684
2,1, 1,21, 0,12, 0.00,60.00,WinterDesignDay
8,704119859.1070103
1987,11235210290.353728
2,1, 1,21, 0,13, 0.00,60.00,WinterDesignDay
8,684436158.8711385
1987,11096767940.291592
2,1, 1,21, 0,14, 0.00,60.00,WinterDesignDay
8,677158789.7013007
1987,10656972010.56433
2,1, 1,21, 0,15, 0.00,60.00,WinterDesignDay
8,659833813.3747916
1987,10055541458.145339
2,1, 1,21, 0,16, 0.00,60.00,WinterDesignDay
8,656548056.7947964
1987,9710176835.354363
2,1, 1,21, 0,17, 0.00,60.00,WinterDesignDay
8,655624407.6876396
1987,9624093308.03029
2,1, 1,21, 0,18, 0.00,60.00,WinterDesignDay
8,1006183493.980784
1987,9413108594.782103
2,1, 1,21, 0,19, 0.00,60.00,WinterDesignDay
8,1025254845.5998002
1987,9521917066.83484
2,1, 1,21, 0,20, 0.00,60.00,WinterDesignDay
8,1023970272.646292
1987,9220956774.961977
2,1, 1,21, 0,21, 0.00,60.00,WinterDesignDay
8,1022980383.070911
1987,9243647329.369904
2,1, 1,21, 0,22, 0.00,60.00,WinterDesignDay
8,963447815.1773926
1987,5710031972.527194
2,1, 1,21, 0,23, 0.00,60.00,WinterDesignDay
8,963659577.1547065
1987,5866508494.752092
2,1, 1,21, 0,24, 0.00,60.00,WinterDesignDay
8,963661976.8536546
1987,5950532396.210195
End of Data
 Number of Records Written=         288
