Program Version,EnergyPlus, Version 9.4.0-998c4b761e, YMD=2021.04.17 02:44
1,5,Environment Title[],Latitude[deg],Longitude[deg],Time Zone[],Elevation[m]
2,8,Day of Simulation[],Month[],Day of Month[],DST Indicator[1=yes 0=no],Hour[],StartMinute[],EndMinute[],DayType
3,5,Cumulative Day of Simulation[],Month[],Day of Month[],DST Indicator[1=yes 0=no],DayType  ! When Daily Report Variables Requested
4,2,Cumulative Days of Simulation[],Month[]  ! When Monthly Report Variables Requested
5,1,Cumulative Days of Simulation[] ! When Run Period Report Variables Requested
6,1,Calendar Year of Simulation[] ! When Annual Report Variables Requested
9,1,Electricity:Facility [J] !TimeStep
1381,1,NaturalGas:Facility [J] !TimeStep
End of Data Dictionary
1,BUFFALO NIAGARA INTL AP ANN CLG .4% CONDNS DB=>MWB 1 HVAC Sizing Pass 1,  42.93, -78.73,  -5.00, 215.00
2,1, 7,21, 0, 1, 0.00,60.00,SummerDesignDay
9,16273047276.185782
1381,11483000019.20364
2,1, 7,21, 0, 2, 0.00,60.00,SummerDesignDay
9,15022488117.969355
1381,6642653746.602795
2,1, 7,21, 0, 3, 0.00,60.00,SummerDesignDay
9,15036419459.260636
1381,6457276570.74201
2,1, 7,21, 0, 4, 0.00,60.00,SummerDesignDay
9,15147145969.05446
1381,6457276570.74201
2,1, 7,21, 0, 5, 0.00,60.00,SummerDesignDay
9,15244045007.215495
1381,6457276570.74201
2,1, 7,21, 0, 6, 0.00,60.00,SummerDesignDay
9,15811452674.103943
1381,6457276570.74201
2,1, 7,21, 0, 7, 0.00,60.00,SummerDesignDay
9,18129345332.185113
1381,10415471470.412814
2,1, 7,21, 0, 8, 0.00,60.00,SummerDesignDay
9,19755078295.858556
1381,13050975777.028616
2,1, 7,21, 0, 9, 0.00,60.00,SummerDesignDay
9,19396755901.872266
1381,12719192106.685452
2,1, 7,21, 0,10, 0.00,60.00,SummerDesignDay
9,19340896874.699594
1381,12481369119.083096
2,1, 7,21, 0,11, 0.00,60.00,SummerDesignDay
9,19288024805.076158
1381,12096780622.422635
2,1, 7,21, 0,12, 0.00,60.00,SummerDesignDay
9,19392764467.45248
1381,12423754066.695389
2,1, 7,21, 0,13, 0.00,60.00,SummerDesignDay
9,19333651778.15644
1381,12376788637.71819
2,1, 7,21, 0,14, 0.00,60.00,SummerDesignDay
9,19286140011.023084
1381,12051669813.601122
2,1, 7,21, 0,15, 0.00,60.00,SummerDesignDay
9,19174798913.49964
1381,12031163766.810479
2,1, 7,21, 0,16, 0.00,60.00,SummerDesignDay
9,19086388113.62904
1381,12030700381.675755
2,1, 7,21, 0,17, 0.00,60.00,SummerDesignDay
9,18968365226.60457
1381,12030237400.700753
2,1, 7,21, 0,18, 0.00,60.00,SummerDesignDay
9,18977723766.21089
1381,12126491677.177552
2,1, 7,21, 0,19, 0.00,60.00,SummerDesignDay
9,19003399633.819974
1381,12792918718.157097
2,1, 7,21, 0,20, 0.00,60.00,SummerDesignDay
9,18947054321.335298
1381,12826828033.452727
2,1, 7,21, 0,21, 0.00,60.00,SummerDesignDay
9,19267709454.48443
1381,12757464392.471972
2,1, 7,21, 0,22, 0.00,60.00,SummerDesignDay
9,19215541891.359498
1381,12793812384.34779
2,1, 7,21, 0,23, 0.00,60.00,SummerDesignDay
9,18347809793.41068
1381,12424571317.275002
2,1, 7,21, 0,24, 0.00,60.00,SummerDesignDay
9,17897090398.791845
1381,11739042733.498206
1,BUFFALO NIAGARA INTL AP ANN CLG .4% CONDNS WB=>MDB 1 HVAC Sizing Pass 1,  42.93, -78.73,  -5.00, 215.00
2,1, 7,21, 0, 1, 0.00,60.00,SummerDesignDay
9,16317534067.85967
1381,11483000019.20364
2,1, 7,21, 0, 2, 0.00,60.00,SummerDesignDay
9,15020579786.242602
1381,6642653746.602795
2,1, 7,21, 0, 3, 0.00,60.00,SummerDesignDay
9,15005174199.445847
1381,6457276570.74201
2,1, 7,21, 0, 4, 0.00,60.00,SummerDesignDay
9,15060152734.700673
1381,6457276570.74201
2,1, 7,21, 0, 5, 0.00,60.00,SummerDesignDay
9,15122456668.932856
1381,6457276570.74201
2,1, 7,21, 0, 6, 0.00,60.00,SummerDesignDay
9,15648116532.230299
1381,6457276570.74201
2,1, 7,21, 0, 7, 0.00,60.00,SummerDesignDay
9,18073287364.159746
1381,11408048706.475359
2,1, 7,21, 0, 8, 0.00,60.00,SummerDesignDay
9,20141412624.263547
1381,12827009631.444199
2,1, 7,21, 0, 9, 0.00,60.00,SummerDesignDay
9,20372189697.727006
1381,12792976614.173783
2,1, 7,21, 0,10, 0.00,60.00,SummerDesignDay
9,20448087642.865339
1381,12424285362.16556
2,1, 7,21, 0,11, 0.00,60.00,SummerDesignDay
9,20588795920.33589
1381,12377340691.231595
2,1, 7,21, 0,12, 0.00,60.00,SummerDesignDay
9,20783416539.50172
1381,12424915660.46767
2,1, 7,21, 0,13, 0.00,60.00,SummerDesignDay
9,20237173672.4516
1381,12288982330.716248
2,1, 7,21, 0,14, 0.00,60.00,SummerDesignDay
9,20235366833.726984
1381,12107466266.239766
2,1, 7,21, 0,15, 0.00,60.00,SummerDesignDay
9,20133846494.977434
1381,11955089731.87437
2,1, 7,21, 0,16, 0.00,60.00,SummerDesignDay
9,20558276622.72644
1381,11954875812.28442
2,1, 7,21, 0,17, 0.00,60.00,SummerDesignDay
9,20352592716.62089
1381,11954658327.244214
2,1, 7,21, 0,18, 0.00,60.00,SummerDesignDay
9,20244514511.83018
1381,12377320454.849638
2,1, 7,21, 0,19, 0.00,60.00,SummerDesignDay
9,20103554115.58409
1381,12793776237.634583
2,1, 7,21, 0,20, 0.00,60.00,SummerDesignDay
9,19922438311.306524
1381,12827630315.084816
2,1, 7,21, 0,21, 0.00,60.00,SummerDesignDay
9,20144177193.79204
1381,12469202035.905888
2,1, 7,21, 0,22, 0.00,60.00,SummerDesignDay
9,19743025847.74457
1381,12792849326.089074
2,1, 7,21, 0,23, 0.00,60.00,SummerDesignDay
9,18673493572.28277
1381,12424550297.098925
2,1, 7,21, 0,24, 0.00,60.00,SummerDesignDay
9,18060166097.03135
1381,11890420821.169827
1,BUFFALO NIAGARA INTL AP ANN HTG 99.6% CONDNS DB 1 HVAC Sizing Pass 1,  42.93, -78.73,  -5.00, 215.00
2,1, 1,21, 0, 1, 0.00,60.00,WinterDesignDay
9,3489048497.8486135
1381,22598291628.024766
2,1, 1,21, 0, 2, 0.00,60.00,WinterDesignDay
9,3103485964.0881626
1381,16412052568.465825
2,1, 1,21, 0, 3, 0.00,60.00,WinterDesignDay
9,3103773981.60615
1381,16317019723.955555
2,1, 1,21, 0, 4, 0.00,60.00,WinterDesignDay
9,3103678875.889669
1381,16346296494.575402
2,1, 1,21, 0, 5, 0.00,60.00,WinterDesignDay
9,3103752698.9127128
1381,16370825470.702694
2,1, 1,21, 0, 6, 0.00,60.00,WinterDesignDay
9,3133575004.942782
1381,17026859720.724238
2,1, 1,21, 0, 7, 0.00,60.00,WinterDesignDay
9,3421846171.2314555
1381,23790599674.213918
2,1, 1,21, 0, 8, 0.00,60.00,WinterDesignDay
9,3431380788.286228
1381,23962323827.858194
2,1, 1,21, 0, 9, 0.00,60.00,WinterDesignDay
9,2762247591.1866147
1381,23890924822.502695
2,1, 1,21, 0,10, 0.00,60.00,WinterDesignDay
9,3746593665.447718
1381,25239871560.29979
2,1, 1,21, 0,11, 0.00,60.00,WinterDesignDay
9,3626989298.423627
1381,25021312273.869909
2,1, 1,21, 0,12, 0.00,60.00,WinterDesignDay
9,3723380355.7514669
1381,25224440799.06568
2,1, 1,21, 0,13, 0.00,60.00,WinterDesignDay
9,3709058348.02046
1381,25203172584.080148
2,1, 1,21, 0,14, 0.00,60.00,WinterDesignDay
9,3621603069.893409
1381,24942913637.256299
2,1, 1,21, 0,15, 0.00,60.00,WinterDesignDay
9,3522435650.3539025
1381,24673761344.37047
2,1, 1,21, 0,16, 0.00,60.00,WinterDesignDay
9,3517921870.6260755
1381,24662640182.755468
2,1, 1,21, 0,17, 0.00,60.00,WinterDesignDay
9,3424038035.355242
1381,24633273373.307638
2,1, 1,21, 0,18, 0.00,60.00,WinterDesignDay
9,4183039758.4136769
1381,24640643767.24078
2,1, 1,21, 0,19, 0.00,60.00,WinterDesignDay
9,4483682965.497042
1381,25114905537.1919
2,1, 1,21, 0,20, 0.00,60.00,WinterDesignDay
9,4510053950.70414
1381,25103172182.617437
2,1, 1,21, 0,21, 0.00,60.00,WinterDesignDay
9,4387854978.407496
1381,25100031396.55802
2,1, 1,21, 0,22, 0.00,60.00,WinterDesignDay
9,4493880133.372082
1381,25089849353.687376
2,1, 1,21, 0,23, 0.00,60.00,WinterDesignDay
9,4112940709.1786458
1381,23238144152.626039
2,1, 1,21, 0,24, 0.00,60.00,WinterDesignDay
9,3922170500.228175
1381,23028536420.009737
1,BUFFALO NIAGARA INTL AP ANN CLG .4% CONDNS DB=>MWB 1,  42.93, -78.73,  -5.00, 215.00
2,1, 7,21, 0, 1, 0.00,60.00,SummerDesignDay
9,16330256136.68477
1381,11483000019.20364
2,1, 7,21, 0, 2, 0.00,60.00,SummerDesignDay
9,15083270272.816597
1381,6642653746.602795
2,1, 7,21, 0, 3, 0.00,60.00,SummerDesignDay
9,15097172759.628027
1381,6457276570.74201
2,1, 7,21, 0, 4, 0.00,60.00,SummerDesignDay
9,15207349848.139859
1381,6457276570.74201
2,1, 7,21, 0, 5, 0.00,60.00,SummerDesignDay
9,15303725377.341105
1381,6457276570.74201
2,1, 7,21, 0, 6, 0.00,60.00,SummerDesignDay
9,15866963531.930058
1381,6457276570.74201
2,1, 7,21, 0, 7, 0.00,60.00,SummerDesignDay
9,18152057487.84625
1381,10415471470.412819
2,1, 7,21, 0, 8, 0.00,60.00,SummerDesignDay
9,19762668954.343397
1381,13050975777.02893
2,1, 7,21, 0, 9, 0.00,60.00,SummerDesignDay
9,19414745898.60574
1381,12719192105.71307
2,1, 7,21, 0,10, 0.00,60.00,SummerDesignDay
9,19359136041.096677
1381,12481369119.10444
2,1, 7,21, 0,11, 0.00,60.00,SummerDesignDay
9,19307750927.409677
1381,12096780623.436161
2,1, 7,21, 0,12, 0.00,60.00,SummerDesignDay
9,19414136301.281324
1381,12423754066.69112
2,1, 7,21, 0,13, 0.00,60.00,SummerDesignDay
9,19356002229.438287
1381,12376788637.71373
2,1, 7,21, 0,14, 0.00,60.00,SummerDesignDay
9,19307974681.23519
1381,12051669815.558796
2,1, 7,21, 0,15, 0.00,60.00,SummerDesignDay
9,19196625690.11857
1381,12031163766.775574
2,1, 7,21, 0,16, 0.00,60.00,SummerDesignDay
9,19108949894.590368
1381,12030700381.641295
2,1, 7,21, 0,17, 0.00,60.00,SummerDesignDay
9,18992448087.537
1381,12030237400.666745
2,1, 7,21, 0,18, 0.00,60.00,SummerDesignDay
9,19003766508.636144
1381,12126491675.415726
2,1, 7,21, 0,19, 0.00,60.00,SummerDesignDay
9,19033042693.21016
1381,12792918718.150019
2,1, 7,21, 0,20, 0.00,60.00,SummerDesignDay
9,18980664950.26166
1381,12826828033.446066
2,1, 7,21, 0,21, 0.00,60.00,SummerDesignDay
9,19303459199.2065
1381,12757464392.464386
2,1, 7,21, 0,22, 0.00,60.00,SummerDesignDay
9,19252821632.578615
1381,12793812384.341269
2,1, 7,21, 0,23, 0.00,60.00,SummerDesignDay
9,18394394653.906694
1381,12424571317.277838
2,1, 7,21, 0,24, 0.00,60.00,SummerDesignDay
9,17944254291.630617
1381,11739042741.783839
1,BUFFALO NIAGARA INTL AP ANN CLG .4% CONDNS WB=>MDB 1,  42.93, -78.73,  -5.00, 215.00
2,1, 7,21, 0, 1, 0.00,60.00,SummerDesignDay
9,16374449866.396258
1381,11483000019.20364
2,1, 7,21, 0, 2, 0.00,60.00,SummerDesignDay
9,15081422935.141816
1381,6642653746.602795
2,1, 7,21, 0, 3, 0.00,60.00,SummerDesignDay
9,15066201323.981804
1381,6457276570.74201
2,1, 7,21, 0, 4, 0.00,60.00,SummerDesignDay
9,15121014036.905055
1381,6457276570.74201
2,1, 7,21, 0, 5, 0.00,60.00,SummerDesignDay
9,15183039174.047083
1381,6457276570.74201
2,1, 7,21, 0, 6, 0.00,60.00,SummerDesignDay
9,15701845731.31698
1381,6457276570.74201
2,1, 7,21, 0, 7, 0.00,60.00,SummerDesignDay
9,18092066193.1498
1381,10415471470.412819
2,1, 7,21, 0, 8, 0.00,60.00,SummerDesignDay
9,20141395641.685
1381,13050975777.028414
2,1, 7,21, 0, 9, 0.00,60.00,SummerDesignDay
9,20376157994.515405
1381,12719192105.713528
2,1, 7,21, 0,10, 0.00,60.00,SummerDesignDay
9,20453269000.13108
1381,12481369119.10444
2,1, 7,21, 0,11, 0.00,60.00,SummerDesignDay
9,20583302563.39257
1381,12096780623.435667
2,1, 7,21, 0,12, 0.00,60.00,SummerDesignDay
9,20777235662.168004
1381,12423754066.691117
2,1, 7,21, 0,13, 0.00,60.00,SummerDesignDay
9,20257743964.79376
1381,12376788637.713726
2,1, 7,21, 0,14, 0.00,60.00,SummerDesignDay
9,20251692015.626893
1381,12051669815.559267
2,1, 7,21, 0,15, 0.00,60.00,SummerDesignDay
9,20150072266.007627
1381,12031163766.775567
2,1, 7,21, 0,16, 0.00,60.00,SummerDesignDay
9,20553177733.44193
1381,12030700381.641282
2,1, 7,21, 0,17, 0.00,60.00,SummerDesignDay
9,20349415851.806417
1381,12030237400.666733
2,1, 7,21, 0,18, 0.00,60.00,SummerDesignDay
9,20253143944.148736
1381,12126491675.415318
2,1, 7,21, 0,19, 0.00,60.00,SummerDesignDay
9,20122488586.860227
1381,12792918718.15002
2,1, 7,21, 0,20, 0.00,60.00,SummerDesignDay
9,19945210248.271356
1381,12826828033.446066
2,1, 7,21, 0,21, 0.00,60.00,SummerDesignDay
9,20175777702.117937
1381,12757464392.464386
2,1, 7,21, 0,22, 0.00,60.00,SummerDesignDay
9,19774565701.719465
1381,12793812384.341269
2,1, 7,21, 0,23, 0.00,60.00,SummerDesignDay
9,18714539783.492597
1381,12424571317.27495
2,1, 7,21, 0,24, 0.00,60.00,SummerDesignDay
9,18109212503.519159
1381,11739042736.521275
1,BUFFALO NIAGARA INTL AP ANN HTG 99.6% CONDNS DB 1,  42.93, -78.73,  -5.00, 215.00
2,1, 1,21, 0, 1, 0.00,60.00,WinterDesignDay
9,3489044812.392278
1381,22598291628.024766
2,1, 1,21, 0, 2, 0.00,60.00,WinterDesignDay
9,3103485960.313082
1381,16412052568.465825
2,1, 1,21, 0, 3, 0.00,60.00,WinterDesignDay
9,3103773974.118276
1381,16317019723.955555
2,1, 1,21, 0, 4, 0.00,60.00,WinterDesignDay
9,3103678872.04804
1381,16346296494.575402
2,1, 1,21, 0, 5, 0.00,60.00,WinterDesignDay
9,3103752695.1039078
1381,16370825470.702694
2,1, 1,21, 0, 6, 0.00,60.00,WinterDesignDay
9,3133575001.2202308
1381,17026859720.724238
2,1, 1,21, 0, 7, 0.00,60.00,WinterDesignDay
9,3421846167.513982
1381,23790599674.213918
2,1, 1,21, 0, 8, 0.00,60.00,WinterDesignDay
9,3431380780.8531506
1381,23962323827.858194
2,1, 1,21, 0, 9, 0.00,60.00,WinterDesignDay
9,2762247587.4577019
1381,23890924822.502695
2,1, 1,21, 0,10, 0.00,60.00,WinterDesignDay
9,3746336601.7619125
1381,25239871560.29979
2,1, 1,21, 0,11, 0.00,60.00,WinterDesignDay
9,3627230981.017968
1381,25021312273.869909
2,1, 1,21, 0,12, 0.00,60.00,WinterDesignDay
9,3723393072.323006
1381,25224440799.06568
2,1, 1,21, 0,13, 0.00,60.00,WinterDesignDay
9,3709265653.9388296
1381,25203172584.080148
2,1, 1,21, 0,14, 0.00,60.00,WinterDesignDay
9,3621412840.6305916
1381,24942913637.256299
2,1, 1,21, 0,15, 0.00,60.00,WinterDesignDay
9,3522352238.193014
1381,24673761344.37047
2,1, 1,21, 0,16, 0.00,60.00,WinterDesignDay
9,3517945064.7085525
1381,24662640182.755468
2,1, 1,21, 0,17, 0.00,60.00,WinterDesignDay
9,3424006452.3030626
1381,24633273373.307638
2,1, 1,21, 0,18, 0.00,60.00,WinterDesignDay
9,4182990144.897409
1381,24640643767.240724
2,1, 1,21, 0,19, 0.00,60.00,WinterDesignDay
9,4483651218.621788
1381,25114905537.1919
2,1, 1,21, 0,20, 0.00,60.00,WinterDesignDay
9,4509462345.962463
1381,25103172182.617437
2,1, 1,21, 0,21, 0.00,60.00,WinterDesignDay
9,4388286301.415046
1381,25100031396.55802
2,1, 1,21, 0,22, 0.00,60.00,WinterDesignDay
9,4493913956.613086
1381,25089849353.687376
2,1, 1,21, 0,23, 0.00,60.00,WinterDesignDay
9,4113300558.2020928
1381,23238144153.04669
2,1, 1,21, 0,24, 0.00,60.00,WinterDesignDay
9,3921860106.4956667
1381,23028536419.565778
End of Data
 Number of Records Written=         288
