Program Version,EnergyPlus, Version 9.4.0-998c4b761e, YMD=2021.04.05 22:23
1,5,Environment Title[],Latitude[deg],Longitude[deg],Time Zone[],Elevation[m]
2,8,Day of Simulation[],Month[],Day of Month[],DST Indicator[1=yes 0=no],Hour[],StartMinute[],EndMinute[],DayType
3,5,Cumulative Day of Simulation[],Month[],Day of Month[],DST Indicator[1=yes 0=no],DayType  ! When Daily Report Variables Requested
4,2,Cumulative Days of Simulation[],Month[]  ! When Monthly Report Variables Requested
5,1,Cumulative Days of Simulation[] ! When Run Period Report Variables Requested
6,1,Calendar Year of Simulation[] ! When Annual Report Variables Requested
7,9,Environment,Site Outdoor Air Drybulb Temperature [C] !Monthly [Value,Min,Day,Hour,Minute,Max,Day,Hour,Minute]
737,1,BUILDING STORY 1 THERMALZONE,Zone Air Temperature [C] !Hourly
738,1,BUILDING STORY 1 THERMALZONE,Zone Air Relative Humidity [%] !Hourly
777,1,BUILDING STORY 10 THERMALZONE,Zone Air Temperature [C] !Hourly
778,1,BUILDING STORY 10 THERMALZONE,Zone Air Relative Humidity [%] !Hourly
817,1,BUILDING STORY 2 THERMALZONE,Zone Air Temperature [C] !Hourly
818,1,BUILDING STORY 2 THERMALZONE,Zone Air Relative Humidity [%] !Hourly
857,1,BUILDING STORY 3 THERMALZONE,Zone Air Temperature [C] !Hourly
858,1,BUILDING STORY 3 THERMALZONE,Zone Air Relative Humidity [%] !Hourly
897,1,BUILDING STORY 4 THERMALZONE,Zone Air Temperature [C] !Hourly
898,1,BUILDING STORY 4 THERMALZONE,Zone Air Relative Humidity [%] !Hourly
937,1,BUILDING STORY 5 THERMALZONE,Zone Air Temperature [C] !Hourly
938,1,BUILDING STORY 5 THERMALZONE,Zone Air Relative Humidity [%] !Hourly
977,1,BUILDING STORY 6 THERMALZONE,Zone Air Temperature [C] !Hourly
978,1,BUILDING STORY 6 THERMALZONE,Zone Air Relative Humidity [%] !Hourly
1017,1,BUILDING STORY 7 THERMALZONE,Zone Air Temperature [C] !Hourly
1018,1,BUILDING STORY 7 THERMALZONE,Zone Air Relative Humidity [%] !Hourly
1057,1,BUILDING STORY 8 THERMALZONE,Zone Air Temperature [C] !Hourly
1058,1,BUILDING STORY 8 THERMALZONE,Zone Air Relative Humidity [%] !Hourly
1097,1,BUILDING STORY 9 THERMALZONE,Zone Air Temperature [C] !Hourly
1098,1,BUILDING STORY 9 THERMALZONE,Zone Air Relative Humidity [%] !Hourly
1308,1,BUILDING STORY 1 THERMALZONE REHEAT COIL,Heating Coil Heating Rate [W] !Hourly
1309,1,BUILDING STORY 1 THERMALZONE REHEAT COIL,Heating Coil Heating Rate [W] !TimeStep
1312,1,BUILDING STORY 10 THERMALZONE REHEAT COIL,Heating Coil Heating Rate [W] !Hourly
1313,1,BUILDING STORY 10 THERMALZONE REHEAT COIL,Heating Coil Heating Rate [W] !TimeStep
1316,1,BUILDING STORY 2 THERMALZONE REHEAT COIL,Heating Coil Heating Rate [W] !Hourly
1317,1,BUILDING STORY 2 THERMALZONE REHEAT COIL,Heating Coil Heating Rate [W] !TimeStep
1320,1,BUILDING STORY 3 THERMALZONE REHEAT COIL,Heating Coil Heating Rate [W] !Hourly
1321,1,BUILDING STORY 3 THERMALZONE REHEAT COIL,Heating Coil Heating Rate [W] !TimeStep
1324,1,BUILDING STORY 4 THERMALZONE REHEAT COIL,Heating Coil Heating Rate [W] !Hourly
1325,1,BUILDING STORY 4 THERMALZONE REHEAT COIL,Heating Coil Heating Rate [W] !TimeStep
1328,1,BUILDING STORY 5 THERMALZONE REHEAT COIL,Heating Coil Heating Rate [W] !Hourly
1329,1,BUILDING STORY 5 THERMALZONE REHEAT COIL,Heating Coil Heating Rate [W] !TimeStep
1332,1,BUILDING STORY 6 THERMALZONE REHEAT COIL,Heating Coil Heating Rate [W] !Hourly
1333,1,BUILDING STORY 6 THERMALZONE REHEAT COIL,Heating Coil Heating Rate [W] !TimeStep
1336,1,BUILDING STORY 7 THERMALZONE REHEAT COIL,Heating Coil Heating Rate [W] !Hourly
1337,1,BUILDING STORY 7 THERMALZONE REHEAT COIL,Heating Coil Heating Rate [W] !TimeStep
1340,1,BUILDING STORY 8 THERMALZONE REHEAT COIL,Heating Coil Heating Rate [W] !Hourly
1341,1,BUILDING STORY 8 THERMALZONE REHEAT COIL,Heating Coil Heating Rate [W] !TimeStep
1344,1,BUILDING STORY 9 THERMALZONE REHEAT COIL,Heating Coil Heating Rate [W] !Hourly
1345,1,BUILDING STORY 9 THERMALZONE REHEAT COIL,Heating Coil Heating Rate [W] !TimeStep
1348,1,1 ZONE VAV MAIN HTG COIL,Heating Coil Heating Rate [W] !Hourly
1349,1,1 ZONE VAV MAIN HTG COIL,Heating Coil Heating Rate [W] !TimeStep
1352,1,1 ZONE VAV 1 MAIN HTG COIL,Heating Coil Heating Rate [W] !Hourly
1353,1,1 ZONE VAV 1 MAIN HTG COIL,Heating Coil Heating Rate [W] !TimeStep
1356,1,1 ZONE VAV 2 MAIN HTG COIL,Heating Coil Heating Rate [W] !Hourly
1357,1,1 ZONE VAV 2 MAIN HTG COIL,Heating Coil Heating Rate [W] !TimeStep
1360,1,1 ZONE VAV 3 MAIN HTG COIL,Heating Coil Heating Rate [W] !Hourly
1361,1,1 ZONE VAV 3 MAIN HTG COIL,Heating Coil Heating Rate [W] !TimeStep
1364,1,1 ZONE VAV 4 MAIN HTG COIL,Heating Coil Heating Rate [W] !Hourly
1365,1,1 ZONE VAV 4 MAIN HTG COIL,Heating Coil Heating Rate [W] !TimeStep
1368,1,1 ZONE VAV 5 MAIN HTG COIL,Heating Coil Heating Rate [W] !Hourly
1369,1,1 ZONE VAV 5 MAIN HTG COIL,Heating Coil Heating Rate [W] !TimeStep
1372,1,1 ZONE VAV 6 MAIN HTG COIL,Heating Coil Heating Rate [W] !Hourly
1373,1,1 ZONE VAV 6 MAIN HTG COIL,Heating Coil Heating Rate [W] !TimeStep
1376,1,1 ZONE VAV 7 MAIN HTG COIL,Heating Coil Heating Rate [W] !Hourly
1377,1,1 ZONE VAV 7 MAIN HTG COIL,Heating Coil Heating Rate [W] !TimeStep
1380,1,1 ZONE VAV 8 MAIN HTG COIL,Heating Coil Heating Rate [W] !Hourly
1381,1,1 ZONE VAV 8 MAIN HTG COIL,Heating Coil Heating Rate [W] !TimeStep
1384,1,1 ZONE VAV 9 MAIN HTG COIL,Heating Coil Heating Rate [W] !Hourly
1385,1,1 ZONE VAV 9 MAIN HTG COIL,Heating Coil Heating Rate [W] !TimeStep
1436,1,1 ZONE VAV CLG COIL,Cooling Coil Total Cooling Rate [W] !TimeStep
1439,1,1 ZONE VAV 1 CLG COIL,Cooling Coil Total Cooling Rate [W] !TimeStep
1442,1,1 ZONE VAV 2 CLG COIL,Cooling Coil Total Cooling Rate [W] !TimeStep
1445,1,1 ZONE VAV 3 CLG COIL,Cooling Coil Total Cooling Rate [W] !TimeStep
1448,1,1 ZONE VAV 4 CLG COIL,Cooling Coil Total Cooling Rate [W] !TimeStep
1451,1,1 ZONE VAV 5 CLG COIL,Cooling Coil Total Cooling Rate [W] !TimeStep
1454,1,1 ZONE VAV 6 CLG COIL,Cooling Coil Total Cooling Rate [W] !TimeStep
1457,1,1 ZONE VAV 7 CLG COIL,Cooling Coil Total Cooling Rate [W] !TimeStep
1460,1,1 ZONE VAV 8 CLG COIL,Cooling Coil Total Cooling Rate [W] !TimeStep
1463,1,1 ZONE VAV 9 CLG COIL,Cooling Coil Total Cooling Rate [W] !TimeStep
1835,1,Heating:Electricity [J] !TimeStep
1810,1,Heating:NaturalGas [J] !TimeStep
1587,1,Cooling:Electricity [J] !TimeStep
45,1,InteriorLights:Electricity [J] !TimeStep
1511,1,ExteriorLights:Electricity [J] !TimeStep
334,1,InteriorEquipment:Electricity [J] !TimeStep
566,1,InteriorEquipment:NaturalGas [J] !TimeStep
1477,1,Fans:Electricity [J] !TimeStep
1860,1,Pumps:Electricity [J] !TimeStep
1662,1,HeatRejection:Electricity [J] !TimeStep
1711,1,HeatRejection:Water [m3] !TimeStep
2034,1,WaterSystems:NaturalGas [J] !TimeStep
1889,1,WaterSystems:Water [m3] !TimeStep
9,1,Electricity:Facility [J] !TimeStep
530,1,NaturalGas:Facility [J] !TimeStep
1687,1,Water:Facility [m3] !TimeStep
End of Data Dictionary
1,RUN PERIOD 1,  42.93, -78.73,  -5.00, 215.00
2,1, 1, 1, 0, 1, 0.00,60.00,Sunday
1309,0.0
1313,75256.24584234462
1317,0.0
1321,136752.87991719813
1325,132613.115083326
1329,21256.06463364899
1333,177079.03056672473
1337,25822.033891750176
1341,57028.700774986355
1345,39311.95659822667
1349,0.0
1353,0.0
1357,0.0
1361,0.0
1365,0.0
1369,0.0
1373,0.0
1377,0.0
1381,0.0
1385,0.0
1436,0.0
1439,19918.236455417373
1442,0.0
1445,61839.86404818929
1448,134122.47858922813
1451,14764.30694013339
1454,123600.60193824052
1457,16658.11302270123
1460,57191.22150788106
1463,16885.788943226395
9,2269626646.6667234
45,72189988.36175365
334,553297494.3906175
530,3445968789.810024
566,114942481.37118849
1477,232108966.9215247
1511,450409559.03999999
1587,775935537.4172951
1662,16618554.209059518
1687,1.0730174936605868
1711,1.0730174936605868
1810,3331026308.438835
1835,0.0
1860,169066546.32647339
1889,0.0
2034,0.0
2,1, 1, 1, 0, 1, 0.00,60.00,Sunday
737,19.51302656685016
738,27.081098770923185
777,18.04968593479316
778,24.961176969056959
817,22.54889756997833
818,23.357500497885654
857,18.079181081322618
858,24.599389435694385
897,18.11470188634471
898,24.629750539654684
937,18.160790345224937
938,25.551738360090228
977,18.085024057160795
978,24.59761428354782
1017,18.113354929211554
1018,25.43772193545307
1057,18.10728425269615
1058,27.370873178851644
1097,18.22960119317107
1098,24.686904542334046
1308,0.0
1312,75256.24584234462
1316,0.0
1320,136752.87991719813
1324,132613.115083326
1328,21256.06463364899
1332,177079.03056672473
1336,25822.033891750176
1340,57028.700774986355
1344,39311.95659822667
1348,0.0
1352,0.0
1356,0.0
1360,0.0
1364,0.0
1368,0.0
1372,0.0
1376,0.0
1380,0.0
1384,0.0
2,1, 1, 1, 0, 2, 0.00,60.00,Sunday
1309,0.0
1313,0.0
1317,0.0
1321,0.0
1325,0.0
1329,0.0
1333,0.0
1337,0.0
1341,0.0
1345,0.0
1349,0.0
1353,0.0
1357,0.0
1361,0.0
1365,0.0
1369,0.0
1373,0.0
1377,0.0
1381,0.0
1385,0.0
1436,0.0
1439,0.0
1442,0.0
1445,0.0
1448,0.0
1451,0.0
1454,0.0
1457,0.0
1460,0.0
1463,0.0
9,1075897041.792371
45,72189988.36175365
334,553297494.3906175
530,114942481.37118849
566,114942481.37118849
1477,0.0
1511,450409559.03999999
1587,0.0
1662,0.0
1687,0.0
1711,0.0
1810,0.0
1835,0.0
1860,0.0
1889,0.0
2034,0.0
2,1, 1, 1, 0, 2, 0.00,60.00,Sunday
737,19.426907913279896
738,27.09376420788845
777,15.437250076418494
778,29.512222896211985
817,22.485037816933756
818,23.253148415203364
857,14.160772369735659
858,31.80834230923228
897,16.48222449669388
898,27.408527060008479
937,17.425015607976897
938,26.720452889024207
977,14.542287611714859
978,31.048395714563325
1017,17.2373427671286
1018,26.846716037317827
1057,17.22403404210395
1058,28.753162790876187
1097,16.68504176762544
1098,27.238821537928115
1308,0.0
1312,0.0
1316,0.0
1320,0.0
1324,0.0
1328,0.0
1332,0.0
1336,0.0
1340,0.0
1344,0.0
1348,0.0
1352,0.0
1356,0.0
1360,0.0
1364,0.0
1368,0.0
1372,0.0
1376,0.0
1380,0.0
1384,0.0
2,1, 1, 1, 0, 3, 0.00,60.00,Sunday
1309,0.0
1313,78600.3017069725
1317,34701.307950771356
1321,166265.6323072575
1325,184478.98501097636
1329,35024.45851897427
1333,212172.0024960819
1337,41983.84474853084
1341,94480.3153017551
1345,46686.7165531878
1349,0.0
1353,0.0
1357,0.0
1361,0.0
1365,0.0
1369,0.0
1373,0.0
1377,0.0
1381,0.0
1385,0.0
1436,0.0
1439,21818.703831536124
1442,88195.85878009255
1445,68149.5556326615
1448,179068.8534239846
1451,23891.253076487876
1454,135668.31566033767
1457,27023.606312151045
1460,93754.77953759665
1463,18872.871900422015
9,2624440742.584633
45,72189988.36175365
334,553297494.3906175
530,4599058947.178515
566,114942481.37118849
1477,336361045.94660857
1511,450409559.03999999
1587,996046806.1116217
1662,20753240.756024559
1687,1.383493707681269
1711,1.383493707681269
1810,4484116465.807327
1835,0.0
1860,195382607.97800756
1889,0.0
2034,0.0
2,1, 1, 1, 0, 3, 0.00,60.00,Sunday
737,19.537526031907768
738,26.794019539793525
777,18.090339409175379
778,24.805028902741378
817,20.827450043884164
818,25.776139173456067
857,18.205365442652068
858,24.247357839562029
897,18.20096923380918
898,24.366665984907145
937,18.292730417855503
938,25.19606578043332
977,18.143046873432188
978,24.36418718147476
1017,18.29068543810299
1018,25.013283744761986
1057,18.232345232891377
1058,26.83698042401692
1097,18.235331544581475
1098,24.586590726822668
1308,0.0
1312,78600.3017069725
1316,34701.307950771356
1320,166265.6323072575
1324,184478.98501097636
1328,35024.45851897427
1332,212172.0024960819
1336,41983.84474853084
1340,94480.3153017551
1344,46686.7165531878
1348,0.0
1352,0.0
1356,0.0
1360,0.0
1364,0.0
1368,0.0
1372,0.0
1376,0.0
1380,0.0
1384,0.0
2,1, 1, 1, 0, 4, 0.00,60.00,Sunday
1309,0.0
1313,0.0
1317,0.0
1321,0.0
1325,0.0
1329,0.0
1333,0.0
1337,0.0
1341,0.0
1345,0.0
1349,0.0
1353,0.0
1357,0.0
1361,0.0
1365,0.0
1369,0.0
1373,0.0
1377,0.0
1381,0.0
1385,0.0
1436,0.0
1439,0.0
1442,0.0
1445,0.0
1448,0.0
1451,0.0
1454,0.0
1457,0.0
1460,0.0
1463,0.0
9,1075897041.792371
45,72189988.36175365
334,553297494.3906175
530,114942481.37118849
566,114942481.37118849
1477,0.0
1511,450409559.03999999
1587,0.0
1662,0.0
1687,0.0
1711,0.0
1810,0.0
1835,0.0
1860,0.0
1889,0.0
2034,0.0
2,1, 1, 1, 0, 4, 0.00,60.00,Sunday
737,19.90511539610847
738,26.20183440531905
777,15.838132512361595
778,28.633964108190975
817,21.886980621238679
818,23.99245157397365
857,15.741183130209036
858,28.399238472123913
897,18.937085406701255
898,23.29026388767969
937,18.194659351945675
938,25.361170355075186
977,16.674459526954736
978,26.760418848357504
1017,18.03685232353114
1018,25.42555019280139
1057,18.22735977488878
1058,26.857240022640249
1097,17.335613097411448
1098,26.033245458396615
1308,0.0
1312,0.0
1316,0.0
1320,0.0
1324,0.0
1328,0.0
1332,0.0
1336,0.0
1340,0.0
1344,0.0
1348,0.0
1352,0.0
1356,0.0
1360,0.0
1364,0.0
1368,0.0
1372,0.0
1376,0.0
1380,0.0
1384,0.0
2,1, 1, 1, 0, 5, 0.00,60.00,Sunday
1309,0.0
1313,61779.45899835779
1317,0.0
1321,121136.99010427183
1325,24536.25311696105
1329,16214.082330874397
1333,178699.63292299686
1337,24788.05244322902
1341,43320.599605915835
1345,37222.02913776349
1349,0.0
1353,0.0
1357,0.0
1361,0.0
1365,0.0
1369,0.0
1373,0.0
1377,0.0
1381,0.0
1385,0.0
1436,0.0
1439,21948.29777427831
1442,0.0
1445,69109.11211918632
1448,24087.309359038743
1451,11553.90479520856
1454,141057.90070659779
1457,17674.220883220005
1460,44250.10828165221
1463,19186.80493258438
9,2072577620.4395433
45,72189988.36175365
334,553297494.3906175
530,2765612924.8750188
566,114942481.37118849
1477,182342258.0280603
1511,450409559.03999999
1587,610620177.6004611
1662,13438092.607809924
1687,0.8640625667703267
1711,0.8640625667703267
1810,2650670443.50383
1835,0.0
1860,190280050.4108405
1889,0.0
2034,0.0
2,1, 1, 1, 0, 5, 0.00,60.00,Sunday
737,19.86815328132009
738,26.153623609404677
777,18.174312531477918
778,24.61338007991908
817,22.41857272007669
818,23.089555017934609
857,18.196914326250317
858,24.206728361869428
897,18.072017928853645
898,24.467553052853959
937,18.10868473205703
938,25.42409681513373
977,18.178478133527855
978,24.25299961200413
1017,18.129642074635237
1018,25.206503391985149
1057,18.09137333165964
1058,26.952181765900645
1097,18.2884765159952
1098,24.455282795760558
1308,0.0
1312,61779.45899835779
1316,0.0
1320,121136.99010427183
1324,24536.25311696105
1328,16214.082330874397
1332,178699.63292299686
1336,24788.05244322902
1340,43320.599605915835
1344,37222.02913776349
1348,0.0
1352,0.0
1356,0.0
1360,0.0
1364,0.0
1368,0.0
1372,0.0
1376,0.0
1380,0.0
1384,0.0
2,1, 1, 1, 0, 6, 0.00,60.00,Sunday
1309,0.0
1313,0.0
1317,70521.58567239467
1321,0.0
1325,0.0
1329,0.0
1333,0.0
1337,0.0
1341,0.0
1345,0.0
1349,0.0
1353,0.0
1357,0.0
1361,0.0
1365,0.0
1369,0.0
1373,0.0
1377,0.0
1381,0.0
1385,0.0
1436,0.0
1439,0.0
1442,164642.41883476554
1445,0.0
1448,0.0
1451,0.0
1454,0.0
1457,0.0
1460,0.0
1463,0.0
9,1649418701.1437183
45,72189988.36175365
334,553297494.3906175
530,587948606.1799436
566,114942481.37118849
1477,76583837.91233024
1511,450409559.03999999
1587,302719454.94491609
1662,7473025.34989169
1687,0.556964774298609
1711,0.556964774298609
1810,473006124.80875506
1835,0.0
1860,186745341.14420934
1889,0.0
2034,0.0
2,1, 1, 1, 0, 6, 0.00,60.00,Sunday
737,20.13767348628052
738,25.643453820410508
777,15.885079929887884
778,28.455708816268709
817,18.643435987509397
818,29.08150994943546
857,15.851522932295909
858,28.074279951321189
897,19.53595519084562
898,22.27422182407175
937,18.238851350761914
938,25.169209975126859
977,16.86478147842935
978,26.31460492031831
1017,18.090123146664856
1018,25.222862246646117
1057,18.311496380026758
1058,26.497546488274808
1097,17.410946076468635
1098,25.81955703463657
1308,0.0
1312,0.0
1316,70521.58567239467
1320,0.0
1324,0.0
1328,0.0
1332,0.0
1336,0.0
1340,0.0
1344,0.0
1348,0.0
1352,0.0
1356,0.0
1360,0.0
1364,0.0
1368,0.0
1372,0.0
1376,0.0
1380,0.0
1384,0.0
2,1, 1, 1, 0, 7, 0.00,60.00,Sunday
1309,0.0
1313,65773.99555306357
1317,0.0
1321,113233.4628089997
1325,0.0
1329,7528.714134961816
1333,171930.84747141426
1337,23288.690491396635
1341,0.0
1345,35787.184554840285
1349,0.0
1353,0.0
1357,0.0
1361,0.0
1365,0.0
1369,0.0
1373,0.0
1377,0.0
1381,0.0
1385,0.0
1436,0.0
1439,21477.690987477108
1442,0.0
1445,69346.0850832591
1448,0.0
1451,3468.859925251084
1454,142041.71052802308
1457,17717.81412128325
1460,0.0
1463,19233.3324697841
9,1901091633.324321
45,72189988.36175365
334,553297494.3906175
530,2268833546.8467485
566,114942481.37118849
1477,137341423.42793919
1511,457419741.7137967
1587,480685717.4355147
1662,10891773.279556422
1687,0.70395774424291
1711,0.70395774424291
1810,2153891065.4755599
1835,0.0
1860,189265494.7151423
1889,0.0
2034,0.0
2,1, 1, 1, 0, 7, 0.00,60.00,Sunday
737,20.162896516311077
738,25.559765955765845
777,18.051826417417148
778,24.788212832692314
817,21.025450069569638
818,25.05264749135938
857,18.19934099370034
858,24.202792058896788
897,19.029957896728705
898,23.04399112742686
937,17.99584250806007
938,25.5470360805051
977,18.188366621000964
978,24.235530699645929
1017,18.134640290552594
1018,25.147776457776698
1057,17.972743049187757
1058,27.014347753048268
1097,18.289983958490529
1098,24.427952294192289
1308,0.0
1312,65773.99555306357
1316,0.0
1320,113233.4628089997
1324,0.0
1328,7528.714134961816
1332,171930.84747141426
1336,23288.690491396635
1340,0.0
1344,35787.184554840285
1348,0.0
1352,0.0
1356,0.0
1360,0.0
1364,0.0
1368,0.0
1372,0.0
1376,0.0
1380,0.0
1384,0.0
2,1, 1, 1, 0, 8, 0.00,60.00,Sunday
1309,0.0
1313,0.0
1317,0.0
1321,0.0
1325,0.0
1329,0.0
1333,0.0
1337,0.0
1341,89513.16076692895
1345,0.0
1349,0.0
1353,0.0
1357,0.0
1361,0.0
1365,0.0
1369,0.0
1373,0.0
1377,0.0
1381,0.0
1385,0.0
1436,0.0
1439,0.0
1442,24300.648202828812
1445,0.0
1448,0.0
1451,0.0
1454,0.0
1457,0.0
1460,96100.37009729306
1463,0.0
9,1593301645.515812
45,72189988.36175365
334,589424768.0929294
530,971082241.4195583
566,114942481.37118849
1477,61116128.992893148
1511,457419741.7137967
1587,220363719.00911797
1662,5488554.334678625
1687,0.45163175754276366
1711,0.45163175754276366
1810,856139760.0483698
1835,0.0
1860,187298745.0106429
1889,0.0
2034,0.0
2,1, 1, 1, 0, 8, 0.00,60.00,Sunday
737,20.066267624106307
738,25.638745405727254
777,15.5242287469529
778,29.078706923489038
817,21.896948682252906
818,23.620429117691079
857,14.945554006959672
858,29.733804888119967
897,18.283909589561547
898,24.045107212883584
937,17.70715796659064
938,25.961773359166985
977,15.61777228760541
978,28.448565783751616
1017,17.604967469245179
1018,25.946556438788485
1057,18.292341241473986
1058,26.394273139853355
1097,17.010660483774936
1098,26.452784777435839
1308,0.0
1312,0.0
1316,0.0
1320,0.0
1324,0.0
1328,0.0
1332,0.0
1336,0.0
1340,89513.16076692895
1344,0.0
1348,0.0
1352,0.0
1356,0.0
1360,0.0
1364,0.0
1368,0.0
1372,0.0
1376,0.0
1380,0.0
1384,0.0
2,1, 1, 1, 0, 9, 0.00,60.00,Sunday
1309,0.0
1313,68159.83054830849
1317,0.0
1321,139839.40504541438
1325,0.0
1329,26133.573424530063
1333,167038.48851457559
1337,32252.31150321175
1341,0.0
1345,39186.99214476507
1349,0.0
1353,0.0
1357,0.0
1361,0.0
1365,0.0
1369,0.0
1373,0.0
1377,0.0
1381,0.0
1385,0.0
1436,0.0
1439,21759.049028451256
1442,0.0
1445,68610.9813879944
1448,0.0
1451,23995.604670849407
1454,137753.83885702259
1457,27188.048020385257
1460,0.0
1463,19111.58682755438
9,1941070001.3580759
45,144379976.7235073
334,922162490.651029
530,2520336848.65383
566,191570802.28531418
1477,143733752.39323405
1511,0.0
1587,529105049.62656858
1662,11804981.259947151
1687,0.782605682852036
1711,0.758197069485518
1810,2282238285.1501824
1835,0.0
1860,189883750.70379014
1889,0.024408613366517924
2034,46527761.2183337
2,1, 1, 1, 0, 9, 0.00,60.00,Sunday
737,20.779577915400169
738,24.69807094027621
777,18.114572533295964
778,24.618541056289645
817,23.216133989182837
818,22.240919001881808
857,18.2075824030325
858,24.121103109361117
897,19.90023663301249
898,22.011366131759116
937,18.293536313971925
938,25.0683139956909
977,18.147888335993206
978,24.33440005074563
1017,18.292238311173987
1018,24.88289791266803
1057,18.3578942742719
1058,26.578554726413864
1097,18.289527643463399
1098,24.3652279796878
1308,0.0
1312,68159.83054830849
1316,0.0
1320,139839.40504541438
1324,0.0
1328,26133.573424530063
1332,167038.48851457559
1336,32252.31150321175
1340,0.0
1344,39186.99214476507
1348,0.0
1352,0.0
1356,0.0
1360,0.0
1364,0.0
1368,0.0
1372,0.0
1376,0.0
1380,0.0
1384,0.0
2,1, 1, 1, 0,10, 0.00,60.00,Sunday
1309,0.0
1313,0.0
1317,46001.68407116426
1321,0.0
1325,0.0
1329,0.0
1333,0.0
1337,0.0
1341,0.0
1345,0.0
1349,0.0
1353,0.0
1357,0.0
1361,0.0
1365,0.0
1369,0.0
1373,0.0
1377,0.0
1381,0.0
1385,0.0
1436,0.0
1439,0.0
1442,168492.6192172524
1445,0.0
1448,0.0
1451,0.0
1454,0.0
1457,0.0
1460,0.0
1463,0.0
9,1645849133.6113938
45,144379976.7235073
334,922162490.651029
530,497930588.80281969
566,191570802.28531418
1477,76583837.91233024
1511,0.0
1587,308659299.71387585
1662,7507783.463273081
1687,0.5372833817513865
1711,0.5128747683848685
1810,284040573.20191487
1835,0.0
1860,186555745.14737807
1889,0.024408613366517924
2034,22319213.315590688
2,1, 1, 1, 0,10, 0.00,60.00,Sunday
737,21.47180488137243
738,24.044680524157287
777,16.120567336679419
778,27.959823691813683
817,18.802166688973946
818,30.10306879456508
857,15.611460600923448
858,28.72640684064264
897,21.342670964659886
898,20.767438670447718
937,18.438697684701098
938,25.00387461698622
977,17.106448946524716
978,26.719075540215476
1017,18.23212331735484
1018,25.124163130118168
1057,18.666952943345537
1058,26.703712403426257
1097,17.349538935934956
1098,25.864435841518995
1308,0.0
1312,0.0
1316,46001.68407116426
1320,0.0
1324,0.0
1328,0.0
1332,0.0
1336,0.0
1340,0.0
1344,0.0
1348,0.0
1352,0.0
1356,0.0
1360,0.0
1364,0.0
1368,0.0
1372,0.0
1376,0.0
1380,0.0
1384,0.0
2,1, 1, 1, 0,11, 0.00,60.00,Sunday
1309,0.0
1313,58827.12512562486
1317,0.0
1321,132255.30196559829
1325,0.0
1329,0.0
1333,157623.1636326863
1337,0.0
1341,0.0
1345,37033.102456151115
1349,0.0
1353,0.0
1357,0.0
1361,0.0
1365,0.0
1369,0.0
1373,0.0
1377,0.0
1381,0.0
1385,0.0
1436,0.0
1439,22100.29532499197
1442,0.0
1445,69910.3706393264
1448,0.0
1451,0.0
1454,144645.20552971069
1457,0.0
1460,0.0
1463,19280.130738300497
9,1851103329.559498
45,144379976.7235073
334,922162490.651029
530,2298140704.3438298
566,191570802.28531418
1477,132398769.74603604
1511,0.0
1587,452586800.2725141
1662,10397988.398443448
1687,0.7795998799702626
1711,0.7551912666037446
1810,2084215002.6802154
1835,0.0
1860,189177303.76796837
1889,0.024408613366517924
2034,22354899.378300348
2,1, 1, 1, 0,11, 0.00,60.00,Sunday
737,21.77475417391274
738,23.940331013336136
777,18.11260635550736
778,24.58633263973062
817,21.931122088869534
818,25.478598429925385
857,18.223958866510885
858,24.374783146716184
897,21.54122264520526
898,21.036630803182079
937,18.384297684695313
938,25.207880388504937
977,18.232494214103136
978,25.18266682002816
1017,18.050676221472157
1018,25.513092623198128
1057,18.62685928855158
1058,27.305846480174578
1097,18.291678402558465
1098,24.32588673103793
1308,0.0
1312,58827.12512562486
1316,0.0
1320,132255.30196559829
1324,0.0
1328,0.0
1332,157623.1636326863
1336,0.0
1340,0.0
1344,37033.102456151115
1348,0.0
1352,0.0
1356,0.0
1360,0.0
1364,0.0
1368,0.0
1372,0.0
1376,0.0
1380,0.0
1384,0.0
2,1, 1, 1, 0,12, 0.00,60.00,Sunday
1309,0.0
1313,0.0
1317,52875.698104222225
1321,0.0
1325,0.0
1329,0.0
1333,0.0
1337,6814.754978830364
1341,0.0
1345,0.0
1349,0.0
1353,0.0
1357,0.0
1361,0.0
1365,0.0
1369,0.0
1373,0.0
1377,0.0
1381,0.0
1385,0.0
1436,0.0
1439,0.0
1442,157436.92781015839
1445,0.0
1448,0.0
1451,0.0
1454,0.0
1457,2945.2821583604115
1460,0.0
1463,0.0
9,1630123776.881664
45,144379976.7235073
334,922162490.651029
530,609833338.192857
566,191570802.28531418
1477,77347210.38917278
1511,0.0
1587,292364908.2963221
1662,7197318.673979787
1687,0.5651444856267309
1711,0.5407358722602129
1810,395801237.17291858
1835,0.0
1860,186671872.1476529
1889,0.024408613366517924
2034,22461298.734624298
2,1, 1, 1, 0,12, 0.00,60.00,Sunday
737,21.929868894441574
738,23.838308294539475
777,16.066322635097987
778,28.040991815934086
817,18.543542204600234
818,31.71606113003037
857,14.985187374283209
858,30.256340720149976
897,21.25127464545696
898,21.589045957595244
937,18.210458417782826
938,25.54659718303244
977,16.24617269586646
978,28.935675538169386
1017,17.92912561505867
1018,25.76829440913036
1057,18.425644652304344
1058,27.811869225096769
1097,17.07143850782989
1098,26.313137496327376
1308,0.0
1312,0.0
1316,52875.698104222225
1320,0.0
1324,0.0
1328,0.0
1332,0.0
1336,6814.754978830364
1340,0.0
1344,0.0
1348,0.0
1352,0.0
1356,0.0
1360,0.0
1364,0.0
1368,0.0
1372,0.0
1376,0.0
1380,0.0
1384,0.0
2,1, 1, 1, 0,13, 0.00,60.00,Sunday
1309,0.0
1313,59871.01910891752
1317,0.0
1321,142273.40738899314
1325,21077.538447509967
1329,0.0
1333,161400.75437793794
1337,0.0
1341,0.0
1345,38433.439404881836
1349,0.0
1353,0.0
1357,0.0
1361,0.0
1365,0.0
1369,0.0
1373,0.0
1377,0.0
1381,0.0
1385,0.0
1436,0.0
1439,22251.9445722316
1442,0.0
1445,69613.49778948723
1448,65647.71751108645
1451,0.0
1454,142213.23997727198
1457,0.0
1460,0.0
1463,19024.002237992434
9,1986021105.6772376
45,144379976.7235073
334,922162490.651029
530,2486783741.555115
566,191570802.28531418
1477,157830909.9780132
1511,0.0
1587,559339463.044495
1662,12538195.650895972
1687,0.8328249761774187
1711,0.8084163628109007
1810,2272746229.0351755
1835,0.0
1860,189770069.62929694
1889,0.024408613366517924
2034,22466710.234625769
2,1, 1, 1, 0,13, 0.00,60.00,Sunday
737,22.294272847850828
738,23.622111101682849
777,18.11732577697522
778,24.689600453824533
817,22.028494382644973
818,26.198837950067433
857,18.228068333614436
858,24.869960988326395
897,21.497266505656115
898,21.86006455552069
937,18.414171621658178
938,25.384290584874564
977,18.21199972363194
978,25.89169353303844
1017,18.40530878441411
1018,25.16789711534593
1057,18.630215060167985
1058,27.890534022607214
1097,18.232519013125175
1098,24.512939242088636
1308,0.0
1312,59871.01910891752
1316,0.0
1320,142273.40738899314
1324,21077.538447509967
1328,0.0
1332,161400.75437793794
1336,0.0
1340,0.0
1344,38433.439404881836
1348,0.0
1352,0.0
1356,0.0
1360,0.0
1364,0.0
1368,0.0
1372,0.0
1376,0.0
1380,0.0
1384,0.0
2,1, 1, 1, 0,14, 0.00,60.00,Sunday
1309,0.0
1313,0.0
1317,50491.07267311224
1321,0.0
1325,0.0
1329,0.0
1333,0.0
1337,0.0
1341,0.0
1345,0.0
1349,0.0
1353,0.0
1357,0.0
1361,0.0
1365,0.0
1369,0.0
1373,0.0
1377,0.0
1381,0.0
1385,0.0
1436,0.0
1439,0.0
1442,161735.82860086344
1445,0.0
1448,0.0
1451,0.0
1454,0.0
1457,0.0
1460,0.0
1463,0.0
9,1633917791.7259455
45,144379976.7235073
334,922162490.651029
530,537158885.0912126
566,191570802.28531418
1477,76583837.91233024
1511,0.0
1587,296611588.6316455
1662,7577926.0202644099
1687,0.5915325996912269
1711,0.5671239863247088
1810,323294479.4620934
1835,0.0
1860,186601971.78716908
1889,0.02440861336651792
2034,22293603.343805076
2,1, 1, 1, 0,14, 0.00,60.00,Sunday
737,22.437711433044087
738,23.585794813827094
777,16.458339080538207
778,27.504605137931475
817,18.57118077250403
818,32.73682258441741
857,15.543927772793815
858,29.83842683760458
897,21.83736805488338
898,21.48034217587583
937,18.49948149513858
938,25.35216018390431
977,17.12228403404718
978,28.210150095501445
1017,18.300781620480877
1018,25.434542312298704
1057,18.73198395730239
1058,27.961487726533059
1097,17.292855702641444
1098,26.080227464631947
1308,0.0
1312,0.0
1316,50491.07267311224
1320,0.0
1324,0.0
1328,0.0
1332,0.0
1336,0.0
1340,0.0
1344,0.0
1348,0.0
1352,0.0
1356,0.0
1360,0.0
1364,0.0
1368,0.0
1372,0.0
1376,0.0
1380,0.0
1384,0.0
2,1, 1, 1, 0,15, 0.00,60.00,Sunday
1309,0.0
1313,51871.927516435506
1317,0.0
1321,125267.76210944908
1325,52811.23881260093
1329,0.0
1333,141152.81912025679
1337,0.0
1341,0.0
1345,33721.70916521271
1349,0.0
1353,0.0
1357,0.0
1361,0.0
1365,0.0
1369,0.0
1373,0.0
1377,0.0
1381,0.0
1385,0.0
1436,0.0
1439,22963.88284060139
1442,0.0
1445,70576.3096315918
1448,141304.84692216095
1451,0.0
1454,145571.48319445237
1457,0.0
1460,0.0
1463,19319.211966223687
9,2166851508.268705
45,144379976.7235073
334,922162490.651029
530,2346465799.1932456
566,191570802.28531418
1477,195979120.32597886
1511,0.0
1587,699297687.6885614
1662,15669161.513378917
1687,1.0310898415533208
1711,1.0066812281868028
1810,2132433265.1859558
1835,0.0
1860,189363071.3662496
1889,0.024408613366517924
2034,22461731.72197517
2,1, 1, 1, 0,15, 0.00,60.00,Sunday
737,22.55357710726399
738,23.609891736671174
777,18.241496307018353
778,24.63205540888194
817,22.16057913524064
818,26.561074194962875
857,18.241037658238484
858,25.33134419565644
897,20.24137430537347
898,24.28961423369216
937,18.64591918282191
938,25.241922783957866
977,18.24656865532074
978,26.557819979985398
1017,18.378681149030947
1018,25.433595669654634
1057,18.902615271304155
1058,27.966162375670664
1097,18.293199653844565
1098,24.547461812997196
1308,0.0
1312,51871.927516435506
1316,0.0
1320,125267.76210944908
1324,52811.23881260093
1328,0.0
1332,141152.81912025679
1336,0.0
1340,0.0
1344,33721.70916521271
1348,0.0
1352,0.0
1356,0.0
1360,0.0
1364,0.0
1368,0.0
1372,0.0
1376,0.0
1380,0.0
1384,0.0
2,1, 1, 1, 0,16, 0.00,60.00,Sunday
1309,0.0
1313,0.0
1317,51330.93840598969
1321,0.0
1325,0.0
1329,0.0
1333,0.0
1337,0.0
1341,0.0
1345,0.0
1349,0.0
1353,0.0
1357,0.0
1361,0.0
1365,0.0
1369,0.0
1373,0.0
1377,0.0
1381,0.0
1385,0.0
1436,0.0
1439,0.0
1442,160409.19910032329
1445,0.0
1448,0.0
1451,0.0
1454,0.0
1457,0.0
1460,0.0
1463,0.0
9,1629622704.8435505
45,144379976.7235073
334,922162490.651029
530,560054024.6795186
566,191570802.28531418
1477,76583837.91233024
1511,0.0
1587,292393720.6182742
1662,7503067.96583341
1687,0.5387970906623494
1711,0.5143884772958314
1810,346127727.66639336
1835,0.0
1860,186599610.97257606
1889,0.024408613366517924
2034,22355494.72781112
2,1, 1, 1, 0,16, 0.00,60.00,Sunday
737,22.455685953278775
738,23.96035855650795
777,16.31111538086824
778,28.059454417203406
817,18.57855925337
818,33.51975904226434
857,15.282959380805924
858,31.185085648542889
897,20.946671538252347
898,23.322276521068845
937,18.503566466261998
938,25.65193117113713
977,16.75018862366783
978,29.844821640825065
1017,18.153399601905489
1018,25.988900423227876
1057,18.73358720948723
1058,28.573886159912175
1097,17.20689919197704
1098,26.473493358763727
1308,0.0
1312,0.0