Program Version,EnergyPlus, Version 9.4.0-998c4b761e, YMD=2021.04.05 22:23
1,5,Environment Title[],Latitude[deg],Longitude[deg],Time Zone[],Elevation[m]
2,8,Day of Simulation[],Month[],Day of Month[],DST Indicator[1=yes 0=no],Hour[],StartMinute[],EndMinute[],DayType
3,5,Cumulative Day of Simulation[],Month[],Day of Month[],DST Indicator[1=yes 0=no],DayType  ! When Daily Meters Requested
4,2,Cumulative Days of Simulation[],Month[]  ! When Monthly Meters Requested
5,1,Cumulative Days of Simulation[] ! When Run Period Meters Requested
6,1,Calendar Year of Simulation[] ! When Annual Meters Requested
1835,1,Heating:Electricity [J] !TimeStep
1810,1,Heating:NaturalGas [J] !TimeStep
1587,1,Cooling:Electricity [J] !TimeStep
45,1,InteriorLights:Electricity [J] !TimeStep
1511,1,ExteriorLights:Electricity [J] !TimeStep
334,1,InteriorEquipment:Electricity [J] !TimeStep
566,1,InteriorEquipment:NaturalGas [J] !TimeStep
1477,1,Fans:Electricity [J] !TimeStep
1860,1,Pumps:Electricity [J] !TimeStep
1662,1,HeatRejection:Electricity [J] !TimeStep
1711,1,HeatRejection:Water [m3] !TimeStep
2034,1,WaterSystems:NaturalGas [J] !TimeStep
1889,1,WaterSystems:Water [m3] !TimeStep
9,1,Electricity:Facility [J] !TimeStep
530,1,NaturalGas:Facility [J] !TimeStep
1687,1,Water:Facility [m3] !TimeStep
532,7,NaturalGas:Facility [J] !Daily [Value,Min,Hour,Minute,Max,Hour,Minute]
11,7,Electricity:Facility [J] !Daily [Value,Min,Hour,Minute,Max,Hour,Minute]
End of Data Dictionary
1,RUN PERIOD 1,  42.93, -78.73,  -5.00, 215.00
2,1, 1, 1, 0, 1, 0.00,60.00,Sunday
9,2269626646.6667234
45,72189988.36175365
334,553297494.3906175
530,3445968789.810024
566,114942481.37118849
1477,232108966.9215247
1511,450409559.03999999
1587,775935537.4172951
1662,16618554.209059518
1687,1.0730174936605868
1711,1.0730174936605868
1810,3331026308.438835
1835,0.0
1860,169066546.32647339
1889,0.0
2034,0.0
2,1, 1, 1, 0, 2, 0.00,60.00,Sunday
9,1075897041.792371
45,72189988.36175365
334,553297494.3906175
530,114942481.37118849
566,114942481.37118849
1477,0.0
1511,450409559.03999999
1587,0.0
1662,0.0
1687,0.0
1711,0.0
1810,0.0
1835,0.0
1860,0.0
1889,0.0
2034,0.0
2,1, 1, 1, 0, 3, 0.00,60.00,Sunday
9,2624440742.584633
45,72189988.36175365
334,553297494.3906175
530,4599058947.178515
566,114942481.37118849
1477,336361045.94660857
1511,450409559.03999999
1587,996046806.1116217
1662,20753240.756024559
1687,1.383493707681269
1711,1.383493707681269
1810,4484116465.807327
1835,0.0
1860,195382607.97800756
1889,0.0
2034,0.0
2,1, 1, 1, 0, 4, 0.00,60.00,Sunday
9,1075897041.792371
45,72189988.36175365
334,553297494.3906175
530,114942481.37118849
566,114942481.37118849
1477,0.0
1511,450409559.03999999
1587,0.0
1662,0.0
1687,0.0
1711,0.0
1810,0.0
1835,0.0
1860,0.0
1889,0.0
2034,0.0
2,1, 1, 1, 0, 5, 0.00,60.00,Sunday
9,2072577620.4395433
45,72189988.36175365
334,553297494.3906175
530,2765612924.8750188
566,114942481.37118849
1477,182342258.0280603
1511,450409559.03999999
1587,610620177.6004611
1662,13438092.607809924
1687,0.8640625667703267
1711,0.8640625667703267
1810,2650670443.50383
1835,0.0
1860,190280050.4108405
1889,0.0
2034,0.0
2,1, 1, 1, 0, 6, 0.00,60.00,Sunday
9,1649418701.1437183
45,72189988.36175365
334,553297494.3906175
530,587948606.1799436
566,114942481.37118849
1477,76583837.91233024
1511,450409559.03999999
1587,302719454.94491609
1662,7473025.34989169
1687,0.556964774298609
1711,0.556964774298609
1810,473006124.80875506
1835,0.0
1860,186745341.14420934
1889,0.0
2034,0.0
2,1, 1, 1, 0, 7, 0.00,60.00,Sunday
9,1901091633.324321
45,72189988.36175365
334,553297494.3906175
530,2268833546.8467485
566,114942481.37118849
1477,137341423.42793919
1511,457419741.7137967
1587,480685717.4355147
1662,10891773.279556422
1687,0.70395774424291
1711,0.70395774424291
1810,2153891065.4755599
1835,0.0
1860,189265494.7151423
1889,0.0
2034,0.0
2,1, 1, 1, 0, 8, 0.00,60.00,Sunday
9,1593301645.515812
45,72189988.36175365
334,589424768.0929294
530,971082241.4195583
566,114942481.37118849
1477,61116128.992893148
1511,457419741.7137967
1587,220363719.00911797
1662,5488554.334678625
1687,0.45163175754276366
1711,0.45163175754276366
1810,856139760.0483698
1835,0.0
1860,187298745.0106429
1889,0.0
2034,0.0
2,1, 1, 1, 0, 9, 0.00,60.00,Sunday
9,1941070001.3580759
45,144379976.7235073
334,922162490.651029
530,2520336848.65383
566,191570802.28531418
1477,143733752.39323405
1511,0.0
1587,529105049.62656858
1662,11804981.259947151
1687,0.782605682852036
1711,0.758197069485518
1810,2282238285.1501824
1835,0.0
1860,189883750.70379014
1889,0.024408613366517924
2034,46527761.2183337
2,1, 1, 1, 0,10, 0.00,60.00,Sunday
9,1645849133.6113938
45,144379976.7235073
334,922162490.651029
530,497930588.80281969
566,191570802.28531418
1477,76583837.91233024
1511,0.0
1587,308659299.71387585
1662,7507783.463273081
1687,0.5372833817513865
1711,0.5128747683848685
1810,284040573.20191487
1835,0.0
1860,186555745.14737807
1889,0.024408613366517924
2034,22319213.315590688
2,1, 1, 1, 0,11, 0.00,60.00,Sunday
9,1851103329.559498
45,144379976.7235073
334,922162490.651029
530,2298140704.3438298
566,191570802.28531418
1477,132398769.74603604
1511,0.0
1587,452586800.2725141
1662,10397988.398443448
1687,0.7795998799702626
1711,0.7551912666037446
1810,2084215002.6802154
1835,0.0
1860,189177303.76796837
1889,0.024408613366517924
2034,22354899.378300348
2,1, 1, 1, 0,12, 0.00,60.00,Sunday
9,1630123776.881664
45,144379976.7235073
334,922162490.651029
530,609833338.192857
566,191570802.28531418
1477,77347210.38917278
1511,0.0
1587,292364908.2963221
1662,7197318.673979787
1687,0.5651444856267309
1711,0.5407358722602129
1810,395801237.17291858
1835,0.0
1860,186671872.1476529
1889,0.024408613366517924
2034,22461298.734624298
2,1, 1, 1, 0,13, 0.00,60.00,Sunday
9,1986021105.6772376
45,144379976.7235073
334,922162490.651029
530,2486783741.555115
566,191570802.28531418
1477,157830909.9780132
1511,0.0
1587,559339463.044495
1662,12538195.650895972
1687,0.8328249761774187
1711,0.8084163628109007
1810,2272746229.0351755
1835,0.0
1860,189770069.62929694
1889,0.024408613366517924
2034,22466710.234625769
2,1, 1, 1, 0,14, 0.00,60.00,Sunday
9,1633917791.7259455
45,144379976.7235073
334,922162490.651029
530,537158885.0912126
566,191570802.28531418
1477,76583837.91233024
1511,0.0
1587,296611588.6316455
1662,7577926.0202644099
1687,0.5915325996912269
1711,0.5671239863247088
1810,323294479.4620934
1835,0.0
1860,186601971.78716908
1889,0.02440861336651792
2034,22293603.343805076
2,1, 1, 1, 0,15, 0.00,60.00,Sunday
9,2166851508.268705
45,144379976.7235073
334,922162490.651029
530,2346465799.1932456
566,191570802.28531418
1477,195979120.32597886
1511,0.0
1587,699297687.6885614
1662,15669161.513378917
1687,1.0310898415533208
1711,1.0066812281868028
1810,2132433265.1859558
1835,0.0
1860,189363071.3662496
1889,0.024408613366517924
2034,22461731.72197517
2,1, 1, 1, 0,16, 0.00,60.00,Sunday
9,1629622704.8435505
45,144379976.7235073
334,922162490.651029
530,560054024.6795186
566,191570802.28531418
1477,76583837.91233024
1511,0.0
1587,292393720.6182742
1662,7503067.96583341
1687,0.5387970906623494
1711,0.5143884772958314
1810,346127727.66639336
1835,0.0
1860,186599610.97257606
1889,0.024408613366517924
2034,22355494.72781112
2,1, 1, 1, 0,17, 0.00,60.00,Sunday
9,1888248927.8778148
45,144379976.7235073
334,958289764.353341
530,2443735823.180883
566,191570802.28531418
1477,132398769.74603606
1511,0.0
1587,453155991.06184008
1662,10714483.474144292
1687,0.7190528348528898
1711,0.6946442214863718
1810,2229703826.3603966
1835,0.0
1860,189309942.51894615
1889,0.024408613366517924
2034,22461194.53517254
2,1, 1, 1, 0,18, 0.00,60.00,Sunday
9,1716558982.3702708
45,72189988.36175365
334,553297494.3906175
530,939799164.7341919
566,114942481.37118849
1477,89046925.19016247
1511,457419741.7137967
1587,348984979.81011417
1662,8448280.086235069
1687,0.5274149480800536
1711,0.5274149480800536
1810,824856683.3630034
1835,0.0
1860,187171572.81759126
1889,0.0
2034,0.0
2,1, 1, 1, 0,19, 0.00,60.00,Sunday
9,2012993553.1126857
45,72189988.36175365
334,553297494.3906175
530,3152687701.977748
566,114942481.37118849
1477,170546980.09400175
1511,457419741.7137967
1587,555717435.0291481
1662,12429882.803882579
1687,0.7671738581343923
1711,0.7671738581343923
1810,3037745220.6065595
1835,0.0
1860,191392030.71948517
1889,0.0
2034,0.0
2,1, 1, 1, 0,20, 0.00,60.00,Sunday
9,1605995015.8570736
45,72189988.36175365
334,553297494.3906175
530,1372829729.0109893
566,114942481.37118849
1477,63941796.31649889
1511,457419741.7137967
1587,264178669.0760701
1662,6647219.086324139
1687,0.4658712578118861
1711,0.4658712578118861
1810,1257887247.6398009
1835,0.0
1860,188320106.9120126
1889,0.0
2034,0.0
2,1, 1, 1, 0,21, 0.00,60.00,Sunday
9,2284245096.319021
45,72189988.36175365
334,553297494.3906175
530,3370900748.418986
566,114942481.37118849
1477,234127330.6739445
1511,457419741.7137967
1587,758836874.5887034
1662,16260424.520007452
1687,1.0030602977788173
1711,1.0030602977788173
1810,3255958267.047797
1835,0.0
1860,192113242.07019774
1889,0.0
2034,0.0
2,1, 1, 1, 0,22, 0.00,60.00,Sunday
9,1605097385.0372818
45,72189988.36175365
334,553297494.3906175
530,1358845927.8949168
566,114942481.37118849
1477,63941796.31649889
1511,457419741.7137967
1587,263562098.86920063
1662,6540662.9596985629
1687,0.46128767072663937
1711,0.46128767072663937
1810,1243903446.5237284
1835,0.0
1860,188145602.42571569
1889,0.0
2034,0.0
2,1, 1, 1, 0,23, 0.00,60.00,Sunday
9,2281003338.476013
45,72189988.36175365
334,553297494.3906175
530,3909516371.4093096
566,114942481.37118849
1477,234127330.6739445
1511,457419741.7137967
1587,754602197.344893
1662,16010196.005479724
1687,1.0643232033884818
1711,1.0643232033884818
1810,3772941191.0516455
1835,0.0
1860,193356389.98552788
1889,0.0
2034,21632698.986475417
2,1, 1, 1, 0,24, 0.00,60.00,Sunday
9,1602375560.45604
45,72189988.36175365
334,553297494.3906175
530,1453857735.8021677
566,114942481.37118849
1477,63941796.31649889
1511,457419741.7137967
1587,260415558.46073199
1662,6475276.4368986519
1687,0.45761875589851799
1711,0.45761875589851799
1810,1338915254.4309793
1835,0.0
1860,188635704.77574236
1889,0.0
2034,0.0
3,1, 1, 1, 0,Sunday
11,43743328284.691768,1075897041.792371, 2,60,2624440742.584633, 3,60
532,44727267151.993808,114942481.37118849, 2,60,4599058947.178515, 3,60
2,2, 1, 2, 0, 1, 0.00,60.00,Monday
9,2565290934.9109137
45,144379976.7235073
334,553297494.3906175
530,3785141685.910633
566,114942481.37118849
1477,285183222.615498
1511,450409559.03999999
1587,919809678.2709061
1662,18747202.182215454
1687,1.278087064605032
1711,1.253678451238514
1810,3647697687.8862459
1835,0.0
1860,193463801.68816868
1889,0.024408613366517924
2034,22501516.65319891
2,2, 1, 2, 0, 2, 0.00,60.00,Monday
9,1671878528.5331574
45,144379976.7235073
334,553297494.3906175
530,1505244538.7371417
566,114942481.37118849
1477,63941796.316498879
1511,450409559.03999999
1587,264621856.03170226
1662,6538787.10757777
1687,0.4847987299499657
1711,0.4603901165834478
1810,1367972107.5403867
1835,0.0
1860,188689058.92325399
1889,0.024408613366517927
2034,22329949.825566606
2,2, 1, 2, 0, 3, 0.00,60.00,Monday
9,2331536936.951392
45,144379976.7235073
334,553297494.3906175
530,4149344693.2740395
566,114942481.37118849
1477,234127330.67394454
1511,450409559.03999999
1587,739169225.798882
1662,15545653.726242403
1687,1.0172769795427439
1711,0.9928683661762257
1810,4012093219.117725
1835,0.0
1860,194607696.5981987
1889,0.024408613366517924
2034,22308992.78512597
2,2, 1, 2, 0, 4, 0.00,60.00,Monday
9,1940474590.6799625
45,144379976.7235073
334,636236851.9224146
530,1556027361.5110112
566,114942481.37118849
1477,102233715.27266401
1511,450409559.03999999
1587,408741960.63677307
1662,9437712.386031079
1687,0.6498547460243315
1711,0.6254461326578135
1810,1418805277.121746
1835,0.0
1860,189034814.69857265
1889,0.024408613366517924
2034,22279603.018076634
2,2, 1, 2, 0, 5, 0.00,60.00,Monday
9,2465473323.576658
45,433139930.1705218
334,922162490.651029
530,6016442189.317552
566,191570802.28531418
1477,381426119.8652021
1511,450409559.03999999
1587,79544383.9219788
1662,2487443.046901965
1687,0.6050141126996329
1711,0.5806054993331149
1810,5802393456.425995
1835,0.0
1860,196303396.8810241
1889,0.024408613366517924
2034,22477930.606242464
2,2, 1, 2, 0, 6, 0.00,60.00,Monday
9,2341651923.9443128
45,433139930.1705218
334,1075319973.9270545
530,6367333145.259711
566,191570802.28531418
1477,371174208.4045982
1511,450409559.03999999
1587,0.0
1662,0.0
1687,0.02440861336651792
1711,0.0
1810,6153381029.951594
1835,0.0
1860,11608252.40213852
1889,0.02440861336651792
2034,22381313.022801885
2,2, 1, 2, 0, 7, 0.00,60.00,Monday
9,4046975225.7263829
45,866279860.3410436
334,2044294548.4075692
530,6233431068.455899
566,383141604.57062837
1477,381426119.8652021
1511,457419741.7137967
1587,98164804.22740333
1662,2813337.2635747457
1687,0.2850218092465403
1711,0.2606131958800224
1810,5827878414.259747
1835,0.0
1860,196576813.90779446
1889,0.024408613366517927
2034,22411049.625524135
2,2, 1, 2, 0, 8, 0.00,60.00,Monday
9,4199747306.7074759
45,1299419790.5115653
334,1844324981.302058
530,5588036091.491451
566,383141604.57062837
1477,371174208.4045982
1511,457419741.7137967
1587,30919076.91016426
1662,1383562.5530984598
1687,0.6009168997990927
1711,0.1859704725682882
1810,5075274731.573193
1835,0.0
1860,195105945.31219463
1889,0.4149464272308047
2034,129619755.34763083
2,2, 1, 2, 0, 9, 0.00,60.00,Monday
9,3851874954.262085
45,1299419790.5115653
334,1844324981.302058
530,6052587818.244439
566,383141604.57062837
1477,381426119.8652021
1511,0.0
1587,128018742.67764935
1662,3430684.7323093938
1687,1.709178311526474
1711,0.29347873626843498
1810,5301797150.98857
1835,0.0
1860,195254635.1733011
1889,1.4156995752580393
2034,367649062.68524089
2,2, 1, 2, 0,10, 0.00,60.00,Monday
9,3759530732.512232
45,1299419790.5115653
334,1844324981.302058
530,5148594031.405509
566,383141604.57062837
1477,371174208.4045982
1511,0.0
1587,49745323.99562942
1662,1827869.1332427338
1687,1.8230733104931747
1711,0.21210482830299194
1810,4326022498.162319
1835,0.0
1860,193038559.16513805
1889,1.6109684821901829
2034,439429928.6725614
2,2, 1, 2, 0,11, 0.00,60.00,Monday
9,3859685911.2141177
45,1299419790.5115653
334,1844324981.302058
530,5590634400.26049
566,383141604.57062837
1477,381847194.2269333
1511,0.0
1587,136815279.97395299
1662,3674847.4291647134
1687,2.214021699358602
1711,0.31014985677020376
1810,4694134477.984299
1835,0.0
1860,193603817.77044375
1889,1.9038718425883979
2034,513358317.7055639
2,2, 1, 2, 0,12, 0.00,60.00,Monday
9,3787487794.0049269
45,1299419790.5115653
334,1844324981.302058
530,4546965559.4412989
566,383141604.57062837
1477,372577538.1277808
1511,0.0
1587,77331036.96879132
1662,2457833.988838869
1687,2.295233206129499
1711,0.29372691007502957
1810,3639894692.4858624
1835,0.0
1860,191376613.1058924
1889,2.0015062960544696
2034,523929262.3848084
2,2, 1, 2, 0,13, 0.00,60.00,Monday
9,3882643452.5292775
45,1299419790.5115653
334,1844324981.302058
530,4886430716.858189
566,383141604.57062837
1477,383071343.7094022
1511,0.0
1587,159627551.81743799
1662,4194710.075979578
1687,2.150893490325684
1711,0.4178819413029116
1810,4030236928.022599
1835,0.0
1860,192005075.11283449
1889,1.7330115490227725
2034,473052184.26496097
2,2, 1, 2, 0,14, 0.00,60.00,Monday
9,3784032338.435624
45,1299419790.5115653
334,1844324981.302058
530,4439092508.541251
566,383141604.57062837
1477,372687574.23489597
1511,0.0
1587,74218636.56305261
1662,2397938.093280119
1687,2.292065645645469
1711,0.2905593495909999
1810,3514092187.327857
1835,0.0
1860,190983417.73077227
1889,2.0015062960544696
2034,541858716.642766
2,2, 1, 2, 0,15, 0.00,60.00,Monday
9,3880186727.486246
45,1299419790.5115653
334,1844324981.302058
530,4582173732.268689
566,383141604.57062837
1477,383058298.354898
1511,0.0
1587,157927998.1851742
1662,4209183.541466548
1687,2.2395610776371694
1711,0.33568923504877098
1810,3684974950.4973928
1835,0.0
1860,191246475.5910845
1889,1.9038718425883979
2034,514057177.2006682
2,2, 1, 2, 0,16, 0.00,60.00,Monday
9,3781892136.8890135
45,1299419790.5115653
334,1844324981.302058
530,4044802405.9345476
566,383141604.57062837
1477,372403383.3200435
1511,0.0
1587,73041827.84148003
1662,2389126.4186363767
1687,2.05048685386028
1711,0.24424946473795404
1810,3191161152.2607858
1835,0.0
1860,190313027.49522946
1889,1.8062373891223258
2034,470499649.10313358
2,2, 1, 2, 0,17, 0.00,60.00,Monday
9,3879517264.70407
45,1299419790.5115653
334,1844324981.302058
530,4630943518.2752699
566,383141604.57062837
1477,382143005.4509643
1511,0.0
1587,157978932.7810182
1662,4210863.976738886
1687,1.873411972243729
1711,0.33566933015309988
1810,3820409947.9701349
1835,0.0
1860,191439690.68172557
1889,1.537742642090629
2034,427391965.73450699
2,2, 1, 2, 0,18, 0.00,60.00,Monday
9,4410074295.123936
45,1299419790.5115653
334,2044294548.4075692
530,4090260684.7018496
566,383141604.57062837
1477,371558373.88089737
1511,457419741.7137967
1587,44897595.29906952
1662,1733628.5756856565
1687,1.2079309482529002
1711,0.20717780022566585
1810,3429691944.4306218
1835,0.0
1860,190750616.7353532
1889,1.0007531480272348
2034,277427135.7005995
2,2, 1, 2, 0,19, 0.00,60.00,Monday
9,2658408409.6925137
45,866279860.3410436
334,922162490.651029
530,2957843644.1773207
566,191570802.28531418
1477,371174208.40459826
1511,457419741.7137967
1587,6601074.421911704
1662,264766.1683583965
1687,0.4672155074905238
1711,0.027860466893201265
1810,2629484472.256505
1835,0.0
1860,34506267.991775918
1889,0.43935504059732258
2034,136788369.6355013
2,2, 1, 2, 0,20, 0.00,60.00,Monday
9,2894674174.880497
45,866279860.3410436
334,1075319973.9270545
530,3658940484.1133558
566,191570802.28531418
1477,373837201.64657929
1511,457419741.7137967
1587,23452152.62598615
1662,849791.0748645242
1687,0.5404639140786969
1711,0.10110887348137439
1810,3342151166.654884
1835,0.0
1860,97515453.55117235
1889,0.4393550405973226
2034,125218515.17315784
2,2, 1, 2, 0,21, 0.00,60.00,Monday
9,1820727772.3518358
45,433139930.1705218
334,553297494.3906175
530,4255327657.2644889
566,114942481.37118849
1477,371174208.4045981
1511,457419741.7137967
1587,0.0
1662,0.0
1687,0.4393550405973226
1711,0.0
1810,4015429873.8942377
1835,0.0
1860,5696397.672301666
1889,0.4393550405973226
2034,124955301.99906257
2,2, 1, 2, 0,22, 0.00,60.00,Monday
9,2165214901.6756508
45,433139930.1705218
334,636236851.9224146
530,5000347672.098256
566,114942481.37118849
1477,378963157.3768813
1511,457419741.7137967
1587,64299441.90129176
1662,2028545.3673892476
1687,0.5006194346980708
1711,0.2565333010328916
1810,4797166217.876902
1835,0.0
1860,193127233.2233549
1889,0.2440861336651792
2034,88238972.85016629
2,2, 1, 2, 0,23, 0.00,60.00,Monday
9,1944528064.6243108
45,144379976.7235073
334,553297494.3906175
530,1545684824.9701427
566,114942481.37118849
1477,137127365.3240639
1511,457419741.7137967
1587,469771916.08802077
1662,9911262.63591469
1687,0.7355715089603522
1711,0.7111628955938342
1810,1408354331.0622683
1835,0.0
1860,172620307.74838964
1889,0.024408613366517927
2034,22388012.536685949
2,2, 1, 2, 0,24, 0.00,60.00,Monday
9,1669663668.4377585
45,144379976.7235073
334,553297494.3906175
530,1263574211.853465
566,114942481.37118849
1477,65740217.42128129
1511,457419741.7137967
1587,255257190.44464676
1662,5989668.565190271
1687,0.5236693837082974
1711,0.49926077034177948
1810,1126158408.5799337
1835,0.0
1860,187579379.1787189
1889,0.02440861336651792
2034,22473321.90234308
3,2, 1, 2, 0,Monday
11,73593171369.85434,1669663668.4377585,24,60,4410074295.123936,18,60
532,101895204644.36602,1263574211.853465,24,60,6367333145.259711, 6,60
2,3, 1, 3, 0, 1, 0.00,60.00,Tuesday
9,2204008624.5548665
45,144379976.7235073
334,553297494.3906175
530,2755551109.1913459
566,114942481.37118849
1477,198730696.19776235
1511,450409559.03999999
1587,653218971.5585132
1662,13462270.538605569
1687,0.9868230124313051
1711,0.9624143990647871
1810,2618133852.8407595
1835,0.0
1860,190509656.10586075
1889,0.024408613366517924
2034,22474774.97939781
2,3, 1, 3, 0, 2, 0.00,60.00,Tuesday
9,1846704281.906928
45,144379976.7235073
334,553297494.3906175
530,1727554396.2244285
566,114942481.37118849
1477,111980472.38851238
1511,450409559.03999999
1587,389545211.9628629
1662,8560029.159777886
1687,0.6945606262511425
1711,0.6701520128846245
1810,1590176489.06769
1835,0.0
1860,188531538.24165014
1889,0.024408613366517924
2034,22435425.78555003
2,3, 1, 3, 0, 3, 0.00,60.00,Tuesday
9,2198247614.079496
45,144379976.7235073
334,553297494.3906175
530,2227658079.765354
566,114942481.37118849
1477,198730696.19776238
1511,450409559.03999999
1587,648757460.5635374
1662,13277651.508424156
1687,0.9405299104513288
1711,0.9161212970848108
1810,2090475064.8696385
1835,0.0
1860,189394775.65564773
1889,0.02440861336651792
2034,22240533.524526996
2,3, 1, 3, 0, 4, 0.00,60.00,Tuesday
9,1945958615.9445053
45,144379976.7235073
334,636236851.9224146
530,2003942617.9067693
566,114942481.37118849
1477,111980472.38851244
1511,450409559.03999999
1587,405271102.1272299
1662,8769272.80764586
1687,0.6973183815193146
1711,0.6729097681527966
1810,1866538019.9987298
1835,0.0
1860,188911380.93519525
1889,0.02440861336651792
2034,22462116.536851136
2,3, 1, 3, 0, 5, 0.00,60.00,Tuesday
9,2187948111.9281628
45,433139930.1705218
334,922162490.651029
530,6436685203.570816
566,191570802.28531418
1477,371174208.4045981
1511,450409559.03999999
1587,0.0
1662,0.0
1687,0.024408613366517924
1711,0.0
1810,6222816467.21822
1835,0.0
1860,11061923.662013742
1889,0.024408613366517924
2034,22297934.06728162
2,3, 1, 3, 0, 6, 0.00,60.00,Tuesday
9,2631198354.0332529
45,433139930.1705218
334,1075319973.9270545
530,7840729324.949672
566,191570802.28531418
1477,381426119.8652022
1511,450409559.03999999
1587,87898961.80557095
1662,2467573.6232374708
1687,0.340836820558512
1711,0.3164282071919941
1810,7626699380.146304
1835,0.0
1860,200536235.6016652
1889,0.024408613366517924
2034,22459142.51805315
2,3, 1, 3, 0, 7, 0.00,60.00,Tuesday
9,3749520555.626308
45,866279860.3410436
334,2044294548.4075692
530,6308937671.606162
566,383141604.57062837
1477,371174208.40459826
1511,457419741.7137967
1587,0.0
1662,0.0
1687,0.02440861336651792
1711,0.0
1810,5903610171.1707329
1835,0.0
1860,10352196.759300687
1889,0.02440861336651792
2034,22185895.864801829
2,3, 1, 3, 0, 8, 0.00,60.00,Tuesday
9,4291737290.128479
45,1299419790.5115653
334,1844324981.302058
530,7143568087.592278
566,383141604.57062837
1477,381426119.8652022
1511,457419741.7137967
1587,108151117.28683646
1662,2747288.5568113748
1687,0.7723310166681724
1711,0.35738458943736786
1810,6633980203.510106
1835,0.0
1860,198248250.89220897
1889,0.4149464272308047
2034,126446279.51154366
2,3, 1, 3, 0, 9, 0.00,60.00,Tuesday
9,3523223459.4253795
45,1299419790.5115653
334,1844324981.302058
530,5841626730.052658
566,383141604.57062837
1477,371174208.40459826
1511,0.0
1587,0.0
1662,0.0
1687,1.415699575258039
1711,0.0
1810,5092531167.906123
1835,0.0
1860,8304479.207157629
1889,1.415699575258039
2034,365953957.57590648
2,3, 1, 3, 0,10, 0.00,60.00,Tuesday
9,3843275163.4943249
45,1299419790.5115653
334,1844324981.302058
530,7374104763.729894
566,383141604.57062837
1477,381426119.8652022
1511,0.0
1587,117754621.47506738
1662,2886859.174648743
1687,1.90600914144776
1711,0.2950406592575772
1810,6559176272.030662
1835,0.0
1860,197462791.1657836
1889,1.6109684821901829
2034,431786887.1286039
2,3, 1, 3, 0,11, 0.00,60.00,Tuesday
9,3524106418.9743835
45,1299419790.5115653
334,1844324981.302058
530,6361231494.281902
566,383141604.57062837
1477,371174208.40459826
1511,0.0
1587,0.0
1662,0.0
1687,1.9038718425883979
1711,0.0
1810,5464389500.374871
1835,0.0
1860,9187438.756161856
1889,1.9038718425883979
2034,513700389.3364027
2,3, 1, 3, 0,12, 0.00,60.00,Tuesday
9,3843592102.511818
45,1299419790.5115653
334,1844324981.302058
530,6719791905.65359
566,383141604.57062837
1477,381506342.3146577
1511,0.0
1587,119734162.35809323
1662,2942924.1819482475
1687,2.3679808797955599
1711,0.36647458374109057
1810,5789920562.593478
1835,0.0
1860,195663901.8434963
1889,2.0015062960544696
2034,546729738.4894836
2,3, 1, 3, 0,13, 0.00,60.00,Tuesday
9,3523557125.230743
45,1299419790.5115653
334,1844324981.302058
530,6044817478.912359
566,383141604.57062837
1477,371361263.5916779
1511,0.0
1587,0.0
1662,0.0
1687,1.7330115490227725
1711,0.0
1810,5193194209.724775
1835,0.0
1860,8451089.825441905
1889,1.7330115490227725
2034,468481664.6169553
2,3, 1, 3, 0,14, 0.00,60.00,Tuesday
9,3845114168.532642
45,1299419790.5115653
334,1844324981.302058
530,6896512881.067888
566,383141604.57062837
1477,381610025.54610607
1511,0.0
1587,120777941.72187934
1662,2911660.219019386
1687,2.408120792696268
1711,0.40661449664179957
1810,5989433573.177008
1835,0.0
1860,196069769.23201395
1889,2.001506296054469
2034,523937703.3202528
2,3, 1, 3, 0,15, 0.00,60.00,Tuesday
9,3523989100.6839945
45,1299419790.5115653
334,1844324981.302058
530,6099407414.259102
566,383141604.57062837
1477,371759401.7917098
1511,0.0
1587,0.0
1662,0.0
1687,1.903871842588398
1711,0.0
1810,5201967923.874946
1835,0.0
1860,8484927.07866124
1889,1.903871842588398
2034,514297885.8135283
2,3, 1, 3, 0,16, 0.00,60.00,Tuesday
9,3844850260.558643
45,1299419790.5115653
334,1844324981.302058
530,6638876196.024581
566,383141604.57062837
1477,381426119.8652022
1511,0.0
1587,121209642.14457393
1662,2885207.641462572
1687,2.22718438338921
1711,0.4209469942668844
1810,5763445515.5622639
1835,0.0
1860,195584519.09378115
1889,1.8062373891223256
2034,492289075.89168927
2,3, 1, 3, 0,17, 0.00,60.00,Tuesday
9,3523814915.103123
45,1299419790.5115653
334,1844324981.302058
530,6129770921.673856
566,383141604.57062837
1477,371174208.40459826
1511,0.0
1587,0.0
1662,0.0
1687,1.537742642090629
1711,0.0
1810,5343831242.10934
1835,0.0
1860,8895934.88490163
1889,1.537742642090629
2034,402798074.99388816
2,3, 1, 3, 0,18, 0.00,60.00,Tuesday
9,4503423035.627338
45,1299419790.5115653
334,2044294548.4075692
530,6800634006.493057
566,383141604.57062837
1477,381426119.8652022
1511,457419741.7137967
1587,121480324.3954718
1662,2839498.8359826665
1687,1.374143563695784
1711,0.3733904156685496
1810,6138110548.928647
1835,0.0
1860,196543011.89775215
1889,1.0007531480272345
2034,279381852.9937817
2,3, 1, 3, 0,19, 0.00,60.00,Tuesday
9,2625560580.9293267
45,866279860.3410436
334,922162490.651029
530,5245053296.610506
566,191570802.28531418
1477,371174208.4045981
1511,457419741.7137967
1587,0.0
1662,0.0
1687,0.43935504059732247
1711,0.0
1810,4921461968.528862
1835,0.0
1860,8524279.818858497
1889,0.43935504059732247
2034,132020525.79632955
2,3, 1, 3, 0,20, 0.00,60.00,Tuesday
9,3031994747.1958458
45,866279860.3410436
334,1075319973.9270545
530,5518577878.223915
566,191570802.28531418
1477,376500194.8885604
1511,457419741.7137967
1587,59588436.96274063
1662,1698014.6997799813
1687,0.7292077007808862
1711,0.2898526601835638
1810,5195753873.643349
1835,0.0
1860,195188524.66287048
1889,0.43935504059732258
2034,131253202.29525166
2,3, 1, 3, 0,21, 0.00,60.00,Tuesday
9,1825412056.4739867
45,433139930.1705218
334,553297494.3906175
530,6025554590.233329
566,114942481.37118849
1477,371174208.4045982
1511,457419741.7137967
1587,0.0
1662,0.0
1687,0.43935504059732258
1711,0.0
1810,5779355686.163667
1835,0.0
1860,10380681.794452625
1889,0.43935504059732258
2034,131256422.69847353
2,3, 1, 3, 0,22, 0.00,60.00,Tuesday
9,2158348148.0459096
45,433139930.1705218
334,636236851.9224146
530,6709648884.966994
566,114942481.37118849
1477,376500194.8885604
1511,457419741.7137967
1587,55436995.71353723
1662,1561580.2848968306
1687,0.5754785608853699
1711,0.33139242722019066
1810,6497691538.856355
1835,0.0
1860,198052853.35218174
1889,0.2440861336651792
2034,97014864.7394511
2,3, 1, 3, 0,23, 0.00,60.00,Tuesday
9,2217543558.176699
45,144379976.7235073
334,553297494.3906175
530,2029313900.188848
566,114942481.37118849
1477,202851012.358038
1511,457419741.7137967
1587,673791698.3321632
1662,11962649.74164153
1687,0.8749490583603709
1711,0.8505404449938528
1810,1891973679.0442456
1835,0.0
1860,173840984.91693483
1889,0.024408613366517927
2034,22397739.773414099
2,3, 1, 3, 0,24, 0.00,60.00,Tuesday
9,1398614968.2596274
45,144379976.7235073
334,553297494.3906175
530,636071737.4833737
566,114942481.37118849
1477,5325986.483962201
1511,457419741.7137967
1587,49724463.12317212
1662,1747927.1218905247
1687,0.37544025111210918
1711,0.35103163774559129
1810,498826180.4747529
1835,0.0
1860,186719378.70268134
1889,0.02440861336651792
2034,22303075.637432204
3,3, 1, 3, 0,Tuesday
11,71811743257.42578,1398614968.2596274,24,60,4503423035.627338,18,60
532,127515620570.66266,636071737.4833737,24,60,7840729324.949672, 6,60
2,4, 1, 4, 0, 1, 0.00,60.00,Wednesday
9,2649917574.469061
45,144379976.7235073
334,553297494.3906175
530,3956826375.316176
566,114942481.37118849
1477,304153700.8581521
1511,450409559.03999999
1587,986934096.3060416
1662,17327652.677846649
1687,1.1982113251152465
1711,1.1738027117487285
1810,3819446244.5830385
1835,0.0
1860,193415094.47289584
1889,0.024408613366517924
2034,22437649.36194903
2,4, 1, 4, 0, 2, 0.00,60.00,Wednesday
9,1390504904.853564
45,144379976.7235073
334,553297494.3906175
530,654092129.8754355
566,114942481.37118849
1477,5325986.4839622019
1511,450409559.03999999
1587,48538169.38231693
1662,1739918.3668886265
1687,0.35286905073661337
1711,0.32846043737009547
1810,516764721.5601412
1835,0.0
1860,186813800.46627186
1889,0.024408613366517924
2034,22384926.94410571
2,4, 1, 4, 0, 3, 0.00,60.00,Wednesday
9,2624893543.504569
45,144379976.7235073
334,553297494.3906175
530,3394290819.1396
566,114942481.37118849
1477,302570367.8299458
1511,450409559.03999999
1587,965534400.1098656
1662,16621775.952803413
1687,1.037061941648304
1711,1.012653328281786
1810,3256870204.7755835
1835,0.0
1860,192079969.4578301
1889,0.024408613366517924
2034,22478132.992827704
2,4, 1, 4, 0, 4, 0.00,60.00,Wednesday
9,1473544729.0196357
45,144379976.7235073
334,636236851.9224146
530,717865689.1429939
566,114942481.37118849
1477,5325986.483962201
1511,450409559.03999999
1587,48642522.02544925
1662,1684158.706400026